CLN025
12118
    1TYR      N    1   3.819   3.740   3.520 -0.6509 -0.0434  0.4174
    1TYR     H1    2   3.895   3.782   3.572  0.2839 -1.4507  0.2501
    1TYR     H2    3   3.854   3.652   3.487  1.1699  0.5356  0.6772
    1TYR     H3    4   3.806   3.794   3.436 -0.2863 -0.9498 -0.2374
    1TYR     CA    5   3.697   3.735   3.605 -0.4355  0.0451 -0.5680
    1TYR     HA    6   3.660   3.837   3.594 -0.7660 -0.0784 -0.6225
    1TYR     CB    7   3.590   3.638   3.561  0.1308 -0.1307  0.4388
    1TYR    HB1    8   3.634   3.538   3.565  1.0525  0.3061  1.5708
    1TYR    HB2    9   3.568   3.666   3.458  1.1646 -0.8471  0.0172
    1TYR     CG   10   3.465   3.647   3.644 -0.2260 -0.5413  0.5246
    1TYR    CD1   11   3.372   3.743   3.628  0.2319  0.5056  0.0979
    1TYR    HD1   12   3.390   3.817   3.551  2.7400 -1.4596 -1.3814
    1TYR    CE1   13   3.266   3.742   3.722  0.0493 -0.8133  0.2346
    1TYR    HE1   14   3.200   3.827   3.725 -1.0417 -1.4459 -2.5215
    1TYR     CZ   15   3.246   3.645   3.817  0.8968 -0.1066  0.0328
    1TYR     OH   16   3.136   3.642   3.904 -0.0590  0.1903  0.7716
    1TYR     HH   17   3.135   3.560   3.952 -1.8988 -1.1297 -1.3108
    1TYR    CE2   18   3.334   3.535   3.820  0.7038 -0.2025 -0.3821
    1TYR    HE2   19   3.332   3.471   3.907  0.1289 -1.0830 -1.0191
    1TYR    CD2   20   3.441   3.539   3.730 -0.0456  0.4128  0.2627
    1TYR    HD2   21   3.516   3.462   3.736 -2.4545 -2.0362  1.0176
    1TYR      C   22   3.733   3.717   3.750  0.2568  0.0778 -0.3612
    1TYR      O   23   3.850   3.702   3.780  0.4036 -0.0413 -0.0411
    2TYR      N   24   3.640   3.755   3.837  0.0510  0.3605  0.3226
    2TYR      H   25   3.548   3.774   3.800  0.6718  0.1363 -1.4502
    2TYR     CA   26   3.661   3.761   3.982  0.5554 -0.5318 -0.7656
    2TYR     HA   27   3.733   3.686   4.014  1.0513  0.4586  0.5351
    2TYR     CB   28   3.719   3.893   4.026 -0.3536 -0.2261  0.0603
    2TYR    HB1   29   3.671   3.975   3.973 -0.1706 -1.3471 -1.9211
    2TYR    HB2   30   3.820   3.907   3.989 -1.2805  4.4811 -1.4060
    2TYR     CG   31   3.713   3.915   4.173 -0.9274  0.0602 -0.0048
    2TYR    CD1   32   3.819   3.874   4.253  0.3341  0.6803  0.0575
    2TYR    HD1   33   3.896   3.811   4.210 -1.3104 -2.3080  1.2219
    2TYR    CE1   34   3.837   3.913   4.386  0.0904 -0.6607  0.3648
    2TYR    HE1   35   3.920   3.883   4.448  0.8033  0.8389  0.1861
    2TYR     CZ   36   3.737   3.987   4.449  0.1589 -0.1734  0.0532
    2TYR     OH   37   3.745   4.013   4.586 -0.6905  0.4667  0.1799
    2TYR     HH   38   3.667   4.058   4.619 -1.8133 -1.0686 -0.2035
    2TYR    CE2   39   3.629   4.027   4.369  0.9296 -0.2203  0.3092
    2TYR    HE2   40   3.556   4.095   4.408  1.2229  0.8518 -0.9204
    2TYR    CD2   41   3.616   3.994   4.232 -0.1700  0.7721 -0.3723
    2TYR    HD2   42   3.529   4.019   4.174  0.7684  2.2951 -1.1791
    2TYR      C   43   3.526   3.742   4.059 -0.1805  0.5110 -0.1055
    2TYR      O   44   3.422   3.791   4.021 -0.7300 -0.0426 -0.5618
    3ASP      N   45   3.534   3.658   4.164 -0.5652  0.6529  0.2097
    3ASP      H   46   3.628   3.633   4.191 -0.8864 -1.3406 -0.3696
    3ASP     CA   47   3.425   3.625   4.256 -0.0623 -0.1944  0.4302
    3ASP     HA   48   3.333   3.639   4.200  0.9267  0.6094 -1.0887
    3ASP     CB   49   3.429   3.465   4.275 -0.2808 -0.5698  0.1040
    3ASP    HB1   50   3.527   3.433   4.312  1.1335  2.2545 -0.9238
    3ASP    HB2   51   3.413   3.416   4.180  1.7696  0.7979 -1.0186
    3ASP     CG   52   3.311   3.429   4.371  0.6207  0.4284 -0.2395
    3ASP    OD1   53   3.202   3.466   4.321  0.1750  0.2278 -0.0184
    3ASP    OD2   54   3.326   3.371   4.479 -0.5001  0.2093  0.2376
    3ASP      C   55   3.439   3.706   4.386 -0.2130 -0.0585 -0.3662
    3ASP      O   56   3.522   3.669   4.469 -1.0500 -0.7165  0.0058
    4PRO      N   57   3.359   3.810   4.409 -0.6286  0.7325  0.4197
    4PRO     CD   58   3.278   3.876   4.314  0.0149 -0.0413  0.3484
    4PRO    HD1   59   3.192   3.815   4.287 -0.9603  1.2380  0.4171
    4PRO    HD2   60   3.328   3.893   4.219  1.6317 -1.1214  0.9709
    4PRO     CG   61   3.231   4.014   4.369 -0.2960 -0.3653 -0.1232
    4PRO    HG1   62   3.133   4.058   4.356  0.0939  0.9201  1.0656
    4PRO    HG2   63   3.285   4.095   4.320 -0.6412 -1.4009 -2.3178
    4PRO     CB   64   3.267   4.001   4.514 -0.8340 -1.0476  0.2485
    4PRO    HB1   65   3.172   3.992   4.568 -1.3117 -1.4669 -0.6436
    4PRO    HB2   66   3.318   4.089   4.552 -1.4799 -0.5734  0.0339
    4PRO     CA   67   3.356   3.875   4.537 -0.2457  0.4909  0.5825
    4PRO     HA   68   3.458   3.903   4.564  1.1076 -0.2371 -3.1507
    4PRO      C   69   3.306   3.784   4.648  0.0745  0.1542  0.1574
    4PRO      O   70   3.319   3.836   4.758 -0.7195  0.6903  0.0883
    5GLU      N   71   3.252   3.662   4.626  0.3497 -0.3472  0.3399
    5GLU      H   72   3.240   3.633   4.530  1.7304 -0.8481  0.2948
    5GLU     CA   73   3.205   3.579   4.737  0.5542 -0.0438  1.2791
    5GLU     HA   74   3.167   3.660   4.799 -4.3998  0.2108 -1.5647
    5GLU     CB   75   3.085   3.496   4.697  0.5238  0.1835  0.0490
    5GLU    HB1   76   3.119   3.419   4.628  0.7148  0.1562  0.1700
    5GLU    HB2   77   3.020   3.561   4.639  1.3856  2.4911  1.5424
    5GLU     CG   78   2.990   3.449   4.815  0.1387  0.2666  0.0113
    5GLU    HG1   79   2.949   3.535   4.867 -2.8048 -0.3265 -1.0658
    5GLU    HG2   80   3.047   3.381   4.879 -0.0222 -1.6821 -1.7863
    5GLU     CD   81   2.877   3.357   4.761 -0.4428 -0.3462 -0.2228
    5GLU    OE1   82   2.835   3.267   4.840  0.5193 -0.1913  0.1911
    5GLU    OE2   83   2.823   3.378   4.654  0.1601  0.2789  0.6810
    5GLU      C   84   3.322   3.501   4.798  0.8344 -0.3925  0.0155
    5GLU      O   85   3.304   3.469   4.913  0.1856 -0.0720 -0.0424
    6THR      N   86   3.432   3.475   4.735  0.4241 -0.1468  0.1238
    6THR      H   87   3.449   3.528   4.651 -0.3528  0.8679  0.5971
    6THR     CA   88   3.547   3.398   4.782 -1.3870  0.0762 -0.4190
    6THR     HA   89   3.538   3.370   4.887  5.0745 -1.7819  0.0640
    6THR     CB   90   3.560   3.262   4.709 -0.4636 -0.4488 -0.0669
    6THR     HB   91   3.657   3.222   4.741  0.0608  1.8045  1.3927
    6THR    CG2   92   3.450   3.159   4.726 -0.6020 -0.7202 -0.0835
    6THR   HG21   93   3.358   3.203   4.688  0.2048  1.2932  0.1931
    6THR   HG22   94   3.479   3.060   4.690  1.3623  0.1842 -1.1479
    6THR   HG23   95   3.437   3.148   4.834 -0.8661  1.7191  0.1839
    6THR    OG1   96   3.568   3.288   4.565  0.1315  0.1063  0.0512
    6THR    HG1   97   3.478   3.317   4.545 -0.2550  0.5757  2.2489
    6THR      C   98   3.684   3.474   4.761 -0.3033 -0.3946 -1.0686
    6THR      O   99   3.779   3.433   4.831 -0.0343 -0.0599  0.0904
    7GLY      N  100   3.697   3.571   4.680 -0.1394 -0.4593 -0.2447
    7GLY      H  101   3.613   3.590   4.627 -0.2624 -3.5198 -1.3273
    7GLY     CA  102   3.822   3.644   4.653  0.0052  0.2448  0.0235
    7GLY    HA1  103   3.878   3.663   4.745  2.0406  0.9262 -1.2798
    7GLY    HA2  104   3.797   3.744   4.616  0.1014  1.3299  2.6714
    7GLY      C  105   3.905   3.560   4.552 -0.1394 -0.2618 -0.5384
    7GLY      O  106   4.030   3.566   4.565  0.0106  0.8464 -0.3287
    8THR      N  107   3.835   3.491   4.459  1.0001  0.0631 -0.2693
    8THR      H  108   3.736   3.511   4.455  0.9876 -0.1355 -1.1847
    8THR     CA  109   3.898   3.406   4.357 -0.5434 -0.2458  0.2834
    8THR     HA  110   4.001   3.416   4.391 -0.8455 -1.6859  1.7711
    8THR     CB  111   3.846   3.262   4.354 -0.3615  0.0293  0.3193
    8THR     HB  112   3.752   3.261   4.298  1.1351 -1.6444 -2.4217
    8THR    CG2  113   3.931   3.165   4.280  0.5790 -0.4281  0.4921
    8THR   HG21  114   4.038   3.159   4.302  0.8120 -1.0199 -0.6849
    8THR   HG22  115   3.882   3.070   4.301  1.5133 -0.8389  0.8635
    8THR   HG23  116   3.925   3.178   4.171  1.1332 -1.1727  0.3626
    8THR    OG1  117   3.828   3.208   4.481 -0.0629 -0.2242  0.4955
    8THR    HG1  118   3.734   3.216   4.500 -0.1977  0.0255 -0.2153
    8THR      C  119   3.891   3.469   4.216 -1.1240 -0.6179  0.5547
    8THR      O  120   3.789   3.510   4.164 -0.3443  0.5280  0.0306
    9TRP      N  121   4.005   3.477   4.148 -0.5650 -0.1283 -0.1119
    9TRP      H  122   4.083   3.448   4.205  0.4776 -0.1204 -1.4611
    9TRP     CA  123   4.024   3.521   4.011 -0.7088 -0.5018  0.2317
    9TRP     HA  124   3.946   3.592   3.986 -0.8041 -1.2798 -1.8626
    9TRP     CB  125   4.149   3.603   4.000 -1.4461 -0.1737  0.6476
    9TRP    HB1  126   4.163   3.626   3.894 -0.4432  1.1580  1.0447
    9TRP    HB2  127   4.236   3.542   4.026 -2.4639 -2.6952 -1.4133
    9TRP     CG  128   4.163   3.728   4.065 -0.9177 -0.4394 -0.4046
    9TRP    CD1  129   4.205   3.752   4.193  0.0541  0.3355 -0.3164
    9TRP    HD1  130   4.225   3.676   4.266 -0.8603  1.9847  1.7615
    9TRP    NE1  131   4.200   3.885   4.220  0.4335  0.0736 -0.4066
    9TRP    HE1  132   4.203   3.919   4.315 -0.9573 -1.3574  0.1822
    9TRP    CE2  133   4.147   3.957   4.115 -0.0141  0.1510 -0.5829
    9TRP    CZ2  134   4.103   4.087   4.099 -0.0433 -0.1141 -0.2277
    9TRP    HZ2  135   4.119   4.154   4.182  0.1253 -0.4539  0.0128
    9TRP    CH2  136   4.050   4.132   3.977  0.0922  1.0572 -0.1195
    9TRP    HH2  137   4.016   4.233   3.962 -0.1446  1.1798  1.1506
    9TRP    CZ3  138   4.053   4.043   3.868  0.3317  0.4151 -0.1051
    9TRP    HZ3  139   4.009   4.082   3.777 -2.2617  1.0363  1.3384
    9TRP    CE3  140   4.097   3.913   3.881 -0.4064  0.9713 -0.6429
    9TRP    HE3  141   4.100   3.851   3.792  1.6377 -1.1892  0.8078
    9TRP    CD2  142   4.134   3.861   4.008  0.2813  0.9811 -0.4739
    9TRP      C  143   4.024   3.397   3.919 -0.9364 -0.6896 -0.0920
    9TRP      O  144   4.064   3.281   3.951 -0.1395  0.2721  0.4573
   10TYR      N  145   3.960   3.416   3.796  0.8488  0.0296 -0.4198
   10TYR      H  146   3.916   3.505   3.780 -0.6593 -0.0796  2.4778
   10TYR     CA  147   3.929   3.313   3.699 -0.5823  0.2084 -0.6768
   10TYR     HA  148   3.986   3.223   3.719 -0.0081  0.5985 -0.5251
   10TYR     CB  149   3.779   3.266   3.696 -0.0446  0.4389 -0.5070
   10TYR    HB1  150   3.765   3.192   3.617  1.1153 -1.5797  1.0999
   10TYR    HB2  151   3.716   3.351   3.669 -0.1504  0.3002 -0.6997
   10TYR     CG  152   3.739   3.206   3.833 -0.2041  0.0827 -0.5428
   10TYR    CD1  153   3.761   3.068   3.847 -0.8297  0.1521  0.2451
   10TYR    HD1  154   3.814   3.019   3.766  1.1693  0.6869  1.1663
   10TYR    CE1  155   3.720   2.989   3.953  0.8352  0.0067  0.0461
   10TYR    HE1  156   3.748   2.885   3.963  0.2906 -0.4353 -2.3250
   10TYR     CZ  157   3.658   3.060   4.060  0.2391 -0.0457 -0.3283
   10TYR     OH  158   3.634   2.996   4.176 -0.0670 -0.2139 -0.2525
   10TYR     HH  159   3.597   3.057   4.240 -0.6039 -0.1353 -0.6338
   10TYR    CE2  160   3.637   3.204   4.044  0.1904  0.2138 -0.1874
   10TYR    HE2  161   3.568   3.248   4.115 -0.6486 -1.4157  0.0626
   10TYR    CD2  162   3.678   3.277   3.937  0.0243 -0.1053  0.2305
   10TYR    HD2  163   3.655   3.382   3.925 -1.9460 -0.6788 -2.0016
   10TYR      C  164   3.952   3.365   3.558 -0.0550  0.1444  0.0266
   10TYR    OC1  165   4.038   3.302   3.487 -0.2814 -0.0841  0.2283
   10TYR    OC2  166   3.893   3.467   3.519  0.3871 -0.0891 -0.4463
   11SOL     OW  167   1.238   1.026   0.992 -0.1883  0.8570 -0.0613
   11SOL    HW1  168   1.208   1.114   0.970 -2.8501  0.0886  0.1459
   11SOL    HW2  169   1.226   1.020   1.087 -1.3554 -0.1372 -0.2481
   12SOL     OW  170   2.832   4.140   3.428  0.5888  0.1768 -0.2049
   12SOL    HW1  171   2.878   4.073   3.377  0.7110  1.4639 -1.8726
   12SOL    HW2  172   2.834   4.107   3.518  2.5584 -0.9995 -0.6132
   13SOL     OW  173   1.000   1.354   3.992  0.0659 -0.1952  0.8038
   13SOL    HW1  174   0.942   1.280   3.973 -0.0910 -0.3083  1.6756
   13SOL    HW2  175   0.979   1.418   3.924  0.6121 -1.1646 -0.3160
   14SOL     OW  176   4.529   0.998   3.001 -0.8370 -0.0095 -0.8873
   14SOL    HW1  177   4.562   1.061   3.066  0.4695 -1.8298  0.3016
   14SOL    HW2  178   4.434   1.010   3.002 -1.0661 -1.0389  2.6081
   15SOL     OW  179   3.778   1.940   1.566  0.1678 -0.3325  0.1847
   15SOL    HW1  180   3.833   2.005   1.523  2.0234 -1.6705  0.4061
   15SOL    HW2  181   3.769   1.870   1.502 -1.0284 -0.2954  0.2888
   16SOL     OW  182   4.530   3.497   1.838  0.5058 -0.0391 -0.0423
   16SOL    HW1  183   4.618   3.531   1.853 -0.1081  2.3779 -1.2996
   16SOL    HW2  184   4.473   3.550   1.895 -0.0466 -2.8984  2.2866
   17SOL     OW  185   1.436   4.706   3.063  0.1155 -0.6253  0.3061
   17SOL    HW1  186   1.524   4.733   3.036  0.0258 -0.5062  0.1267
   17SOL    HW2  187   1.436   4.713   3.158  0.8077 -2.1636  0.4541
   18SOL     OW  188   3.931   0.050   0.976 -0.5412 -0.3230 -0.3874
   18SOL    HW1  189   4.015   0.012   1.005 -1.3817 -1.5830  0.5051
   18SOL    HW2  190   3.865  -0.009   1.011 -1.8254  0.6729 -1.0525
   19SOL     OW  191   0.392   3.382   3.484 -0.8338 -0.6985 -0.3745
   19SOL    HW1  192   0.452   3.405   3.554  1.0637 -0.3401 -2.0395
   19SOL    HW2  193   0.315   3.438   3.499  1.1128  2.3090 -0.7532
   20SOL     OW  194   2.743   3.554   1.707 -0.3633  0.2832  0.5036
   20SOL    HW1  195   2.769   3.473   1.664 -0.4701  0.1689  0.6532
   20SOL    HW2  196   2.793   3.554   1.789  1.0369  1.2519 -0.3079
   21SOL     OW  197   1.913   4.914   3.197 -0.2368  0.5259  0.0988
   21SOL    HW1  198   1.914   4.822   3.167  1.9386  1.0275 -1.6106
   21SOL    HW2  199   1.924   4.908   3.291  0.2776 -0.9655 -0.0205
   22SOL     OW  200   3.005   2.199   3.009  0.4506 -0.7406 -0.4446
   22SOL    HW1  201   2.949   2.153   3.073  1.6824 -1.1551  0.3697
   22SOL    HW2  202   3.072   2.242   3.062  0.3514  0.5673 -1.3350
   23SOL     OW  203   0.768   2.921   1.158 -0.4820 -0.3337 -0.2660
   23SOL    HW1  204   0.762   3.016   1.142 -1.1373 -0.1687  0.8434
   23SOL    HW2  205   0.782   2.914   1.253 -0.5719 -1.3561 -0.3225
   24SOL     OW  206   2.197   4.220   2.966  0.1037 -0.4473  0.1211
   24SOL    HW1  207   2.142   4.147   2.993  0.2090 -0.0746  1.4471
   24SOL    HW2  208   2.268   4.222   3.031  1.0375 -0.2034 -0.8757
   25SOL     OW  209   2.187   3.555   2.392  0.0505 -0.0994  0.1149
   25SOL    HW1  210   2.101   3.515   2.376  0.6483 -0.9630 -1.1078
   25SOL    HW2  211   2.218   3.514   2.472 -0.4561 -0.1607  0.2859
   26SOL     OW  212   4.099   1.121   1.070 -0.0726 -0.1840  0.4395
   26SOL    HW1  213   4.170   1.073   1.113 -0.6773 -0.4809  1.1334
   26SOL    HW2  214   4.119   1.114   0.976  1.6557  1.0935  0.6711
   27SOL     OW  215   2.819   3.718   0.329 -1.2868  0.2403  0.8955
   27SOL    HW1  216   2.842   3.685   0.416  0.1344  2.7775  1.5795
   27SOL    HW2  217   2.901   3.751   0.294 -2.0252  0.0852 -1.0839
   28SOL     OW  218   3.016   2.815   4.023  0.5721  0.0753 -0.4363
   28SOL    HW1  219   3.045   2.724   4.033  0.4312 -0.1429 -1.7743
   28SOL    HW2  220   2.923   2.812   4.046  0.5393 -0.1468 -0.5888
   29SOL     OW  221   2.674   4.807   1.722  0.5946 -0.3144  0.1456
   29SOL    HW1  222   2.711   4.728   1.762  0.6777 -0.0319  0.6250
   29SOL    HW2  223   2.592   4.821   1.769  0.5528 -0.1451  0.0211
   30SOL     OW  224   2.153   2.011   4.266  0.3444 -0.4454 -0.0227
   30SOL    HW1  225   2.065   1.998   4.300 -0.4746  1.1050 -1.4197
   30SOL    HW2  226   2.190   2.080   4.321 -0.8764  1.8531 -1.8864
   31SOL     OW  227   4.045   4.755   1.505 -0.2669  0.7746  0.2892
   31SOL    HW1  228   4.118   4.741   1.565  0.5558 -0.2307 -0.8788
   31SOL    HW2  229   4.007   4.668   1.492 -0.3216  0.9322 -0.7528
   32SOL     OW  230   0.606   0.277   1.816  0.1455  0.1295  0.3350
   32SOL    HW1  231   0.629   0.304   1.727 -1.1971 -0.8299 -0.3454
   32SOL    HW2  232   0.649   0.192   1.827 -1.2392 -0.6907 -0.1801
   33SOL     OW  233   2.540   0.906   4.182 -0.3964 -0.1363  0.4251
   33SOL    HW1  234   2.614   0.861   4.222  0.2854 -0.2630 -0.9246
   33SOL    HW2  235   2.464   0.850   4.201 -0.2850  0.2968  2.3311
   34SOL     OW  236   0.222   0.427   1.766  0.9223  0.0266  0.2157
   34SOL    HW1  237   0.237   0.507   1.816  0.8860  0.2147 -0.0754
   34SOL    HW2  238   0.241   0.451   1.675 -1.8169  0.5035 -0.3228
   35SOL     OW  239   1.381   1.157   3.462  0.2592 -0.2410 -0.2761
   35SOL    HW1  240   1.384   1.165   3.366 -1.9063 -3.1991 -0.7163
   35SOL    HW2  241   1.425   1.236   3.493  2.9299 -0.1217 -3.6850
   36SOL     OW  242   1.654   1.738   0.257  0.2585 -0.2030  0.1454
   36SOL    HW1  243   1.565   1.775   0.255  0.9347  1.5953 -1.8175
   36SOL    HW2  244   1.654   1.674   0.186 -0.1160 -2.0908  1.7710
   37SOL     OW  245   0.740   3.896   3.875 -0.0910  0.1330 -0.1773
   37SOL    HW1  246   0.767   3.836   3.805  0.6256  1.3080 -0.9568
   37SOL    HW2  247   0.809   3.963   3.877 -2.6581  3.1625 -2.0723
   38SOL     OW  248   4.370   1.934   4.368  0.0366  0.2967  0.2034
   38SOL    HW1  249   4.418   1.969   4.294  0.7259  1.1250  1.0173
   38SOL    HW2  250   4.436   1.923   4.437 -0.2950 -1.8220  0.2791
   39SOL     OW  251   2.958   1.864   0.977 -0.0549  0.1167  0.4572
   39SOL    HW1  252   2.960   1.789   1.036 -0.9041 -0.3341 -0.0588
   39SOL    HW2  253   3.007   1.835   0.900 -2.5108 -0.9085 -0.8254
   40SOL     OW  254   1.679   1.440   0.511  0.4804  0.2321  0.3630
   40SOL    HW1  255   1.743   1.493   0.465  0.2490  0.4240  0.2627
   40SOL    HW2  256   1.720   1.420   0.596  0.2231  1.2759  0.7449
   41SOL     OW  257   3.588   3.144   0.048  0.2783  0.0765 -0.8328
   41SOL    HW1  258   3.575   3.236   0.073 -0.3961 -0.1870 -0.1801
   41SOL    HW2  259   3.506   3.101   0.073  0.9951 -0.9191 -0.1414
   42SOL     OW  260   0.968   0.703   2.374 -0.5050 -0.1930 -0.1841
   42SOL    HW1  261   1.030   0.703   2.301 -0.0793 -0.9747  0.1573
   42SOL    HW2  262   0.885   0.733   2.336  0.2072  1.4072 -0.5263
   43SOL     OW  263   1.461   2.685   3.255 -0.4078 -0.8329  0.5978
   43SOL    HW1  264   1.531   2.669   3.191  0.6238  2.0301  0.8843
   43SOL    HW2  265   1.482   2.625   3.327  2.7495  0.8825  1.3106
   44SOL     OW  266   4.125   1.317   0.202  0.1325 -0.0713 -0.4421
   44SOL    HW1  267   4.047   1.338   0.255  0.1921 -3.2318  1.0938
   44SOL    HW2  268   4.102   1.236   0.157  1.8820 -0.0306 -1.4763
   45SOL     OW  269   2.994   3.076   4.310  0.1612 -0.2481 -0.1182
   45SOL    HW1  270   2.910   3.123   4.307 -0.0060 -0.5465 -2.7941
   45SOL    HW2  271   2.970   2.986   4.329 -0.0196 -0.1546  0.1036
   46SOL     OW  272   1.513   0.204   1.381  0.5410 -0.0719  0.0024
   46SOL    HW1  273   1.573   0.134   1.405 -0.2931 -0.5018  0.9054
   46SOL    HW2  274   1.569   0.272   1.343  1.5984 -0.4631  0.8098
   47SOL     OW  275   3.750   0.360   4.298  0.1060 -0.0064 -0.0276
   47SOL    HW1  276   3.765   0.269   4.273  0.4841  0.4143 -1.4369
   47SOL    HW2  277   3.828   0.406   4.267 -0.4848  0.9392 -0.1371
   48SOL     OW  278   1.977   2.901   1.280  0.6179  0.5012 -0.2139
   48SOL    HW1  279   1.981   2.984   1.232  1.0984  1.3313  1.2012
   48SOL    HW2  280   1.885   2.892   1.305  1.0010  2.0916  2.0424
   49SOL     OW  281   3.835   1.576   4.395 -1.0841  0.0150 -0.2863
   49SOL    HW1  282   3.829   1.550   4.303  0.4324  1.7258 -0.9141
   49SOL    HW2  283   3.764   1.639   4.408 -0.9661  0.1717 -0.4149
   50SOL     OW  284   4.064   0.901   3.190  0.0141  0.2304  0.2653
   50SOL    HW1  285   4.124   0.827   3.198  0.6436  0.6924 -0.1181
   50SOL    HW2  286   3.991   0.867   3.139  0.6319  0.0580 -0.5252
   51SOL     OW  287   2.119   2.428   3.149 -0.5991  0.1195  0.5895
   51SOL    HW1  288   2.063   2.361   3.110  0.2538 -0.1501 -0.2165
   51SOL    HW2  289   2.060   2.500   3.170 -1.1132  0.2337 -1.1154
   52SOL     OW  290   4.951   2.563   4.580  0.7374 -0.1475  0.2994
   52SOL    HW1  291   4.892   2.634   4.551 -2.9938 -3.1290 -0.3196
   52SOL    HW2  292   5.013   2.554   4.508 -0.4612  0.7557 -0.9261
   53SOL     OW  293   0.130   1.021   0.139  0.0276  0.1748 -0.7196
   53SOL    HW1  294   0.130   0.978   0.053  0.6234  0.4060 -0.8370
   53SOL    HW2  295   0.046   1.066   0.143 -0.4757 -0.7365 -0.7280
   54SOL     OW  296   2.428   2.761   0.038  1.1645  0.1962  0.6537
   54SOL    HW1  297   2.442   2.809  -0.044 -0.6126 -1.9707 -1.0434
   54SOL    HW2  298   2.350   2.802   0.076 -0.0389 -0.9252 -0.5249
   55SOL     OW  299   4.985   4.296   3.719 -0.0015 -0.0042 -0.0073
   55SOL    HW1  300   5.049   4.279   3.649 -1.0819  0.1529 -1.0645
   55SOL    HW2  301   4.977   4.212   3.764 -0.0450 -0.3969 -0.7289
   56SOL     OW  302   0.433   1.308   0.776  0.3169  0.3698 -0.1022
   56SOL    HW1  303   0.485   1.295   0.696  1.4010 -1.2221  0.7957
   56SOL    HW2  304   0.497   1.336   0.841  0.2086 -1.9226  1.1049
   57SOL     OW  305   2.832   4.773   2.843 -0.7552  0.1637 -0.2077
   57SOL    HW1  306   2.758   4.826   2.812 -0.5381 -0.2496 -1.4951
   57SOL    HW2  307   2.853   4.810   2.928 -1.9240  0.8174 -0.1714
   58SOL     OW  308   1.383   1.697   0.937  0.0104  0.1580 -0.2112
   58SOL    HW1  309   1.301   1.677   0.983 -0.5885 -0.6899 -1.5853
   58SOL    HW2  310   1.397   1.791   0.952 -1.5946  0.4778 -0.5324
   59SOL     OW  311   1.471   1.688   3.555 -0.7281 -0.1618  0.2602
   59SOL    HW1  312   1.427   1.615   3.599 -1.1104 -0.1793 -0.1472
   59SOL    HW2  313   1.556   1.693   3.598  0.1695 -2.2361 -1.1419
   60SOL     OW  314   2.498   3.050   3.450  0.5926  0.3038 -0.3368
   60SOL    HW1  315   2.534   3.004   3.374  2.2730 -1.1205  1.2273
   60SOL    HW2  316   2.501   3.143   3.426  1.5154 -0.0814 -1.8306
   61SOL     OW  317   1.397   4.668   0.570 -0.2424 -0.1665  0.1300
   61SOL    HW1  318   1.334   4.737   0.549  1.2429  0.6343 -2.0978
   61SOL    HW2  319   1.462   4.673   0.500  1.7538 -1.6212  1.7438
   62SOL     OW  320   3.651   1.771   2.697  0.0269 -0.1237  0.2135
   62SOL    HW1  321   3.691   1.717   2.629 -2.6129 -0.7086 -1.0223
   62SOL    HW2  322   3.702   1.852   2.697 -0.5915  0.4368 -3.4572
   63SOL     OW  323   4.459   3.645   4.912  0.0933 -0.0988 -0.1088
   63SOL    HW1  324   4.378   3.594   4.912  0.3825 -0.5844  1.1294
   63SOL    HW2  325   4.520   3.595   4.966  1.6619 -0.3841 -2.0181
   64SOL     OW  326   3.705   2.531   2.202 -0.1845 -0.0039 -0.2571
   64SOL    HW1  327   3.615   2.500   2.206 -0.5466  1.1484  2.3994
   64SOL    HW2  328   3.754   2.457   2.165 -1.8770 -1.4675  0.2962
   65SOL     OW  329   1.440   0.859   0.456 -0.1978 -0.6992  0.0609
   65SOL    HW1  330   1.347   0.867   0.437 -0.4534 -2.3543  0.5254
   65SOL    HW2  331   1.444   0.817   0.541  0.9866  0.4998  0.6416
   66SOL     OW  332   1.812   2.983   4.164  0.2766 -0.0836 -0.4788
   66SOL    HW1  333   1.825   2.975   4.070  1.2712  1.1573 -0.4696
   66SOL    HW2  334   1.863   2.911   4.202 -1.1439 -1.3713 -0.9091
   67SOL     OW  335   3.991   0.857   2.802  0.2382 -0.2361 -0.3393
   67SOL    HW1  336   3.922   0.919   2.776  0.9649  0.4938 -0.6027
   67SOL    HW2  337   3.975   0.841   2.894  0.6825  1.2437  0.0280
   68SOL     OW  338   4.483   3.920   3.630 -0.1459  0.0832 -0.6843
   68SOL    HW1  339   4.449   3.840   3.670 -2.2924  1.2912  0.0443
   68SOL    HW2  340   4.407   3.960   3.589  0.6302  2.3329 -0.0502
   69SOL     OW  341   1.811   3.349   3.886  0.7750  0.6142 -0.1199
   69SOL    HW1  342   1.727   3.336   3.931  1.2016 -2.3530  0.0385
   69SOL    HW2  343   1.792   3.329   3.794  0.8758  2.1913 -0.5136
   70SOL     OW  344   0.046   3.038   2.327  0.2164 -0.6237  0.0826
   70SOL    HW1  345   0.093   2.981   2.266 -0.0802 -0.9754  0.1749
   70SOL    HW2  346  -0.017   2.980   2.369 -0.4788 -0.1085 -0.2316
   71SOL     OW  347   0.387   0.810   1.304 -0.4341  0.4646 -0.4247
   71SOL    HW1  348   0.469   0.807   1.254 -0.1174 -2.6004  0.0918
   71SOL    HW2  349   0.332   0.742   1.264 -1.4780  0.2809  1.2384
   72SOL     OW  350   0.424   0.495   2.981  0.4424  0.4165 -0.5713
   72SOL    HW1  351   0.368   0.463   3.052  1.4752 -2.7281 -1.0325
   72SOL    HW2  352   0.509   0.511   3.022 -0.2354  3.6526 -0.1892
   73SOL     OW  353   1.557   0.842   3.900  0.3721 -0.9774 -0.6718
   73SOL    HW1  354   1.634   0.800   3.861 -0.7170 -0.9404 -3.0027
   73SOL    HW2  355   1.580   0.851   3.993  4.0661  0.9654 -1.5614
   74SOL     OW  356   1.835   4.896   3.474 -0.0799 -0.4314 -0.0357
   74SOL    HW1  357   1.776   4.827   3.444 -0.7021 -1.3643  2.9515
   74SOL    HW2  358   1.798   4.924   3.558  1.3606  2.0487 -0.1318
   75SOL     OW  359   0.193   3.227   0.903  0.7437  0.0158  0.5946
   75SOL    HW1  360   0.247   3.176   0.842  0.8475 -1.4946  1.8634
   75SOL    HW2  361   0.229   3.315   0.900  0.4170  0.1370 -1.8663
   76SOL     OW  362   4.794   3.671   3.622  0.6183 -0.0571 -0.0145
   76SOL    HW1  363   4.730   3.714   3.679  0.4478 -0.8779  0.4266
   76SOL    HW2  364   4.877   3.710   3.647  0.8368 -1.7270  2.1913
   77SOL     OW  365   2.996   4.971   2.093 -0.5590  0.1062  0.6234
   77SOL    HW1  366   3.010   5.051   2.144  1.6105  1.0447 -1.2429
   77SOL    HW2  367   2.985   4.903   2.158 -0.0924  1.5706  2.3208
   78SOL     OW  368   2.731   0.159   1.664 -0.5460 -0.4300  0.6997
   78SOL    HW1  369   2.646   0.203   1.671  0.5206  1.6818  1.2890
   78SOL    HW2  370   2.757   0.142   1.754 -0.4480 -1.3457  0.5117
   79SOL     OW  371   2.206   3.405   1.269 -0.7056 -0.3759 -0.0928
   79SOL    HW1  372   2.174   3.364   1.350  2.1574  0.3927  1.5660
   79SOL    HW2  373   2.178   3.496   1.276  0.2629 -0.1070  0.5129
   80SOL     OW  374   3.828   1.922   4.485  0.3533 -0.4487  0.2804
   80SOL    HW1  375   3.832   1.977   4.563 -1.3212  1.3386 -0.7934
   80SOL    HW2  376   3.753   1.865   4.500 -0.8654  0.8612 -0.5226
   81SOL     OW  377   4.699   3.270   1.478 -0.0225 -0.0764 -0.2183
   81SOL    HW1  378   4.655   3.251   1.395 -1.4918  1.0090  0.2756
   81SOL    HW2  379   4.660   3.209   1.541 -0.9492  0.9527  0.2410
   82SOL     OW  380   1.366   1.773   1.330  0.0380  0.9724 -0.9705
   82SOL    HW1  381   1.414   1.808   1.255 -0.0702  1.3755 -0.8584
   82SOL    HW2  382   1.307   1.708   1.293  0.8711  0.2654 -1.0708
   83SOL     OW  383   2.875   0.410   0.352  0.2985 -0.7039  0.1134
   83SOL    HW1  384   2.865   0.317   0.335  0.4675 -0.7596  0.3067
   83SOL    HW2  385   2.948   0.437   0.296  2.1747 -1.3026  2.0990
   84SOL     OW  386   3.992   3.008   2.143 -0.6127  0.3042  0.2565
   84SOL    HW1  387   4.050   3.055   2.083 -2.5564  1.7223 -0.6134
   84SOL    HW2  388   3.904   3.024   2.109 -1.5415 -2.1516  1.2527
   85SOL     OW  389   5.028   3.880   0.035  0.1171 -0.3495  0.3547
   85SOL    HW1  390   5.077   3.951   0.077  0.6063 -0.7951  0.5515
   85SOL    HW2  391   4.938   3.911   0.031 -0.0497 -0.4864  2.1896
   86SOL     OW  392   2.389   4.197   3.384 -0.0700 -0.1178 -0.7270
   86SOL    HW1  393   2.316   4.142   3.411  0.4704 -1.0789 -1.1338
   86SOL    HW2  394   2.454   4.135   3.349  0.1239  0.8607 -2.2208
   87SOL     OW  395   4.481   1.003   1.721 -0.2051 -0.1820 -0.5463
   87SOL    HW1  396   4.538   0.963   1.656  0.1097 -0.4902 -0.0837
   87SOL    HW2  397   4.540   1.032   1.791 -0.7026 -1.5965  0.5170
   88SOL     OW  398   4.196   3.727   0.885 -0.5723 -0.3990 -0.1707
   88SOL    HW1  399   4.132   3.734   0.956  0.1392  2.2700  0.3142
   88SOL    HW2  400   4.237   3.642   0.898 -2.2921 -1.1063  0.9911
   89SOL     OW  401   0.857   1.360   0.248  0.0224  0.1479 -0.0697
   89SOL    HW1  402   0.852   1.410   0.330  1.1639  1.0678 -0.5237
   89SOL    HW2  403   0.783   1.390   0.197 -0.2191  0.1895  0.2987
   90SOL     OW  404   4.071   1.575   2.334 -0.8416  0.0485  0.5883
   90SOL    HW1  405   4.027   1.490   2.327 -1.9079  0.6137  0.0792
   90SOL    HW2  406   4.138   1.573   2.266 -1.2074 -0.1981  0.2260
   91SOL     OW  407   2.593   2.956   3.156 -0.1870 -0.2736 -0.4650
   91SOL    HW1  408   2.656   2.896   3.197 -0.0083  0.0665 -0.2306
   91SOL    HW2  409   2.645   3.008   3.095 -0.5634 -1.1937 -1.5958
   92SOL     OW  410   0.277   1.250   1.030 -0.2808 -0.5343  0.6617
   92SOL    HW1  411   0.190   1.211   1.039 -1.5379  2.2884  1.9395
   92SOL    HW2  412   0.284   1.271   0.937 -0.8588 -0.9667  0.5137
   93SOL     OW  413   4.420   0.805   0.654 -0.1043 -0.3853  0.0673
   93SOL    HW1  414   4.374   0.723   0.672 -0.5582 -0.5905 -1.7849
   93SOL    HW2  415   4.370   0.871   0.702 -0.6492 -0.9964  0.3609
   94SOL     OW  416   1.014   3.733   3.968  0.1560  0.4537 -0.2390
   94SOL    HW1  417   0.956   3.719   4.043 -2.2866  0.8728 -1.9252
   94SOL    HW2  418   1.005   3.653   3.917 -0.5870  1.3145 -1.5157
   95SOL     OW  419   1.670   1.032   0.669  0.2283  0.0426  0.7917
   95SOL    HW1  420   1.637   1.106   0.720 -0.3442  0.5766 -0.3117
   95SOL    HW2  421   1.592   0.980   0.649  0.3048  0.3139 -0.2643
   96SOL     OW  422   0.094   3.626   0.960 -0.1838 -0.1334 -0.1538
   96SOL    HW1  423   0.019   3.573   0.989  0.5698 -2.2178 -1.6810
   96SOL    HW2  424   0.054   3.703   0.919 -1.3286  0.7367  2.3707
   97SOL     OW  425   4.558   3.539   2.489  0.1588 -0.1238 -0.2673
   97SOL    HW1  426   4.559   3.623   2.534 -0.8626  0.0185 -0.4895
   97SOL    HW2  427   4.645   3.531   2.451  0.4154  0.6193  0.1475
   98SOL     OW  428   2.694   2.208   3.882 -0.1466  0.5394  0.6832
   98SOL    HW1  429   2.625   2.142   3.870  0.1047  0.5647 -1.3591
   98SOL    HW2  430   2.743   2.178   3.959 -0.5711 -1.1952  0.3319
   99SOL     OW  431   4.470   2.155   4.813  0.6289 -0.2819 -0.4894
   99SOL    HW1  432   4.434   2.207   4.741  1.1336 -0.8069 -1.1386
   99SOL    HW2  433   4.562   2.142   4.790  2.0458  3.1069  2.2946
  100SOL     OW  434   2.316   3.804   4.510  0.0856 -0.4873 -0.2171
  100SOL    HW1  435   2.267   3.875   4.469 -0.6784 -1.0994 -0.3874
  100SOL    HW2  436   2.249   3.742   4.539  0.7264 -1.0482  0.1075
  101SOL     OW  437   3.396   1.742   2.403  0.0813 -0.0331  0.3898
  101SOL    HW1  438   3.434   1.724   2.489 -1.6416 -2.6658  0.7372
  101SOL    HW2  439   3.335   1.814   2.418 -2.3929 -2.3148  2.1922
  102SOL     OW  440   3.420   4.876   3.262 -0.3364  0.0454 -0.3525
  102SOL    HW1  441   3.372   4.878   3.345 -0.0824  3.0081 -0.1447
  102SOL    HW2  442   3.507   4.908   3.285 -0.8136  2.8651 -1.9328
  103SOL     OW  443   1.259   3.601   2.879 -0.5543  0.1350 -0.0019
  103SOL    HW1  444   1.189   3.537   2.872 -0.7674 -0.1003  2.9858
  103SOL    HW2  445   1.228   3.677   2.831 -2.8857  0.0154  1.1983
  104SOL     OW  446   4.837   0.648   3.628  0.1674 -0.5714  0.2219
  104SOL    HW1  447   4.865   0.557   3.628  0.4389 -0.5079 -1.2883
  104SOL    HW2  448   4.833   0.673   3.536 -1.7371  0.4018  0.5055
  105SOL     OW  449   1.918   1.170   2.268  0.2386  0.3043 -0.0063
  105SOL    HW1  450   1.978   1.244   2.254 -0.8471  1.3507  0.6967
  105SOL    HW2  451   1.879   1.155   2.182  1.4996 -0.4129 -0.4820
  106SOL     OW  452   0.367   3.483   1.321  0.3491 -0.4114 -0.0452
  106SOL    HW1  453   0.281   3.446   1.303  0.8052 -1.4860 -0.0777
  106SOL    HW2  454   0.387   3.537   1.245 -0.6746  0.5782  0.3615
  107SOL     OW  455   2.981   1.444   2.513 -0.1754 -0.2855  0.1172
  107SOL    HW1  456   3.030   1.385   2.457 -1.5285 -0.4367 -0.9646
  107SOL    HW2  457   2.896   1.401   2.525 -0.6199  0.6869  0.6056
  108SOL     OW  458   4.448   3.989   0.932 -0.1145  0.3032  0.0223
  108SOL    HW1  459   4.433   3.934   0.855 -0.6818 -0.2551  0.5180
  108SOL    HW2  460   4.430   3.932   1.006  1.1904  0.6099  0.5989
  109SOL     OW  461   0.264   0.885   3.028  0.1846  0.4123  0.3424
  109SOL    HW1  462   0.348   0.875   3.071 -1.0291 -3.4920  2.2775
  109SOL    HW2  463   0.274   0.838   2.945 -0.0123  0.1035  0.4912
  110SOL     OW  464   2.558   4.177   2.060 -0.0661 -0.1084 -0.3762
  110SOL    HW1  465   2.582   4.179   2.152  0.4742  1.8527 -0.5092
  110SOL    HW2  466   2.500   4.102   2.051  0.8880 -1.0849  1.2881
  111SOL     OW  467   2.578   3.986   3.483 -0.4823  0.3567  0.0774
  111SOL    HW1  468   2.530   3.921   3.535 -0.6612  0.6896  0.3303
  111SOL    HW2  469   2.604   4.053   3.546 -0.4224  0.6033 -0.2076
  112SOL     OW  470   1.276   0.289   0.314  0.9296  0.0842  0.1771
  112SOL    HW1  471   1.327   0.289   0.394  0.6464  0.2505  0.3587
  112SOL    HW2  472   1.337   0.260   0.246  0.8923 -1.0985  0.6278
  113SOL     OW  473   4.136   1.569   1.638 -0.2161  0.1721 -0.4126
  113SOL    HW1  474   4.166   1.532   1.721  0.2465 -0.3536 -0.8098
  113SOL    HW2  475   4.053   1.612   1.660 -0.0477  0.1236  0.3404
  114SOL     OW  476   2.528   3.314   3.675  0.5457  0.0375 -0.0285
  114SOL    HW1  477   2.528   3.228   3.719 -0.7997 -0.6087 -1.2261
  114SOL    HW2  478   2.592   3.305   3.605 -1.6923 -1.1032 -2.0827
  115SOL     OW  479   2.707   0.053   3.444  0.3445 -0.6820 -0.0290
  115SOL    HW1  480   2.799   0.032   3.461 -0.0500 -2.3959  0.1854
  115SOL    HW2  481   2.664  -0.032   3.435 -0.9816  0.0768 -1.4982
  116SOL     OW  482   4.957   2.519   3.735  0.1772  0.1389 -0.6326
  116SOL    HW1  483   4.941   2.555   3.822 -0.2066 -0.3801 -0.4759
  116SOL    HW2  484   4.912   2.578   3.675  0.9132  0.8111 -0.5374
  117SOL     OW  485   2.439   4.768   1.875  0.5279 -0.4013 -0.3869
  117SOL    HW1  486   2.373   4.784   1.808  0.3082  1.3883  0.2120
  117SOL    HW2  487   2.403   4.809   1.954  0.4829 -2.9638  1.0475
  118SOL     OW  488   3.518   0.789   0.560 -0.0514  0.4488 -0.2071
  118SOL    HW1  489   3.535   0.796   0.466 -2.1111  0.5511 -0.6194
  118SOL    HW2  490   3.497   0.697   0.574 -1.3992  0.7247 -0.2083
  119SOL     OW  491   0.071   1.984   2.818 -0.3894  0.5640 -0.0657
  119SOL    HW1  492   0.073   1.894   2.787  1.3837 -0.1776  1.9626
  119SOL    HW2  493   0.134   2.030   2.762 -0.2421  0.1937 -0.2093
  120SOL     OW  494   3.627   3.853   3.107  0.3385 -1.0667 -0.0189
  120SOL    HW1  495   3.547   3.903   3.124  0.5875 -0.5274 -0.4367
  120SOL    HW2  496   3.597   3.774   3.063 -0.2853 -2.2723  2.3738
  121SOL     OW  497   1.606   3.305   3.294 -0.2177 -0.1531 -0.7179
  121SOL    HW1  498   1.555   3.369   3.344  0.1058 -0.1993 -0.3304
  121SOL    HW2  499   1.587   3.221   3.336  0.2735 -0.1547 -0.4977
  122SOL     OW  500   1.608   3.035   2.672 -0.6375  0.1134  0.3492
  122SOL    HW1  501   1.614   3.091   2.749  0.2995 -1.1030  1.2007
  122SOL    HW2  502   1.595   2.947   2.707  1.8809 -0.7874 -0.7362
  123SOL     OW  503   0.541   2.805   1.052 -0.4009  0.1671 -0.0541
  123SOL    HW1  504   0.607   2.852   1.103  1.0655 -0.8422 -0.9433
  123SOL    HW2  505   0.504   2.742   1.114 -1.3249  1.4609  0.7420
  124SOL     OW  506   0.226   2.920   1.331 -0.2937  0.3665 -0.6322
  124SOL    HW1  507   0.280   2.998   1.343  2.5609 -1.7532  1.7764
  124SOL    HW2  508   0.139   2.947   1.361  1.1258  2.1292  2.4184
  125SOL     OW  509   1.455   4.084   3.779 -0.1227  0.2925 -0.5973
  125SOL    HW1  510   1.540   4.059   3.742 -0.3800  1.1784 -1.8590
  125SOL    HW2  511   1.477   4.124   3.863  0.7210  0.5370 -0.9222
  126SOL     OW  512   2.179   2.465   2.740  0.0708  0.2818 -0.1308
  126SOL    HW1  513   2.214   2.489   2.826  1.3565 -3.8416  0.7311
  126SOL    HW2  514   2.253   2.425   2.694 -1.3728 -0.5249 -1.8926
  127SOL     OW  515   0.230   0.857   0.344 -0.3383 -0.5511 -0.2426
  127SOL    HW1  516   0.242   0.914   0.420 -2.2489 -3.3665  2.4192
  127SOL    HW2  517   0.211   0.917   0.272  0.9872  2.2570  1.5597
  128SOL     OW  518   3.691   1.635   3.686  0.2122  0.3861 -0.0320
  128SOL    HW1  519   3.717   1.551   3.649 -0.9958 -0.3415  0.7195
  128SOL    HW2  520   3.757   1.653   3.753  0.3193 -0.0866 -0.0081
  129SOL     OW  521   2.470   4.290   4.269  0.5872  0.1140  0.0841
  129SOL    HW1  522   2.394   4.339   4.237  1.8520  1.5485 -0.8596
  129SOL    HW2  523   2.473   4.212   4.213 -0.6032 -0.3682  0.6447
  130SOL     OW  524   3.040   1.788   1.923 -0.8015 -0.5953  0.0651
  130SOL    HW1  525   2.996   1.859   1.971 -0.7852  0.3617 -1.2641
  130SOL    HW2  526   3.053   1.824   1.835 -0.0616 -1.9761 -0.4138
  131SOL     OW  527   2.245   1.698   3.750 -0.4742  0.0057 -0.1498
  131SOL    HW1  528   2.232   1.636   3.679 -2.8058  2.4631 -2.0634
  131SOL    HW2  529   2.337   1.724   3.743 -0.2438 -1.0305 -1.1949
  132SOL     OW  530   0.362   3.499   4.984 -0.6787  0.5923 -0.1996
  132SOL    HW1  531   0.387   3.416   4.944  0.4614  1.6392 -1.7677
  132SOL    HW2  532   0.335   3.475   5.073 -0.0826 -1.4059 -0.4997
  133SOL     OW  533   0.474   4.906   0.277  0.4961  0.4226 -0.2132
  133SOL    HW1  534   0.526   4.966   0.223  1.4000  1.1334  1.3851
  133SOL    HW2  535   0.534   4.834   0.298  0.7299  1.0156  1.2557
  134SOL     OW  536   4.717   4.608   1.544  0.1728 -0.4984  0.0937
  134SOL    HW1  537   4.810   4.623   1.526  0.0151  3.1962  1.3927
  134SOL    HW2  538   4.693   4.534   1.489  3.3039 -0.0080 -2.1924
  135SOL     OW  539   2.574   2.069   1.167 -0.7301 -0.3945 -0.2889
  135SOL    HW1  540   2.590   2.001   1.231 -0.5201 -0.0071  0.0748
  135SOL    HW2  541   2.660   2.091   1.132 -1.0484 -2.2695 -2.4616
  136SOL     OW  542   0.635   1.554   3.668 -0.4655  0.0875 -0.9087
  136SOL    HW1  543   0.709   1.494   3.684  0.5477  0.9877 -2.0445
  136SOL    HW2  544   0.672   1.641   3.683 -1.9890  0.4706  1.0099
  137SOL     OW  545   0.812   2.138   2.806  0.4118 -0.4716  0.0130
  137SOL    HW1  546   0.831   2.115   2.897 -0.4155  0.2235  0.3775
  137SOL    HW2  547   0.872   2.211   2.787  1.2295 -1.2130 -0.3101
  138SOL     OW  548   0.245   0.307   4.233  0.0419 -0.6706 -0.0006
  138SOL    HW1  549   0.207   0.377   4.181  1.7011  0.0559 -0.2968
  138SOL    HW2  550   0.309   0.265   4.175  1.8119  0.0467  1.3135
  139SOL     OW  551   4.114   4.428   1.237 -0.1134  0.2532 -0.4295
  139SOL    HW1  552   4.052   4.355   1.234  1.3024 -0.9474 -1.4555
  139SOL    HW2  553   4.151   4.433   1.149  0.3922  1.7181 -0.1685
  140SOL     OW  554   1.628   1.345   3.282 -0.4969  0.1955  0.5847
  140SOL    HW1  555   1.538   1.350   3.250 -0.7480 -3.0402  0.5035
  140SOL    HW2  556   1.674   1.291   3.217  1.8278  2.4822  0.1345
  141SOL     OW  557   3.476   2.836   3.359 -0.1224 -0.3929  0.1413
  141SOL    HW1  558   3.430   2.898   3.303  0.0623 -1.1737 -0.9002
  141SOL    HW2  559   3.407   2.793   3.410 -0.1343  1.8799  2.2103
  142SOL     OW  560   2.037   4.401   3.937  0.1135  0.2679  0.3996
  142SOL    HW1  561   1.982   4.326   3.960 -0.0370  0.4552  0.6548
  142SOL    HW2  562   2.078   4.376   3.854  1.1224 -0.6603  1.1422
  143SOL     OW  563   3.878   3.931   0.851 -0.3067 -0.0397  0.2022
  143SOL    HW1  564   3.802   3.982   0.822 -0.5240  0.1831  1.1325
  143SOL    HW2  565   3.851   3.840   0.838 -0.0785  0.0486 -1.0555
  144SOL     OW  566   3.703   1.121   1.464  0.1850 -0.1427 -0.3204
  144SOL    HW1  567   3.679   1.034   1.496  0.8067 -0.1936  0.0267
  144SOL    HW2  568   3.648   1.134   1.387  0.2069 -0.9096 -0.4739
  145SOL     OW  569   4.095   3.509   2.077 -0.1973 -0.1859  0.0812
  145SOL    HW1  570   4.139   3.457   2.010 -1.7880  0.6764 -1.7259
  145SOL    HW2  571   4.129   3.597   2.065  2.2480 -0.6140  2.9178
  146SOL     OW  572   4.668   3.197   2.352 -0.1387  0.1290 -0.2224
  146SOL    HW1  573   4.684   3.275   2.405  1.2711 -0.1205 -0.2455
  146SOL    HW2  574   4.620   3.138   2.410 -0.6679  0.7578 -0.0068
  147SOL     OW  575   2.229   2.257   1.470 -1.3572  0.6175 -0.0047
  147SOL    HW1  576   2.300   2.300   1.519 -2.3786  2.0514  0.2869
  147SOL    HW2  577   2.266   2.243   1.383 -0.6107  1.0614  0.2221
  148SOL     OW  578   4.031   2.732   2.156 -0.6038  0.2150 -0.5872
  148SOL    HW1  579   3.963   2.729   2.089  0.4083  0.0598 -1.6413
  148SOL    HW2  580   4.014   2.814   2.204 -0.4458  1.1239 -2.0252
  149SOL     OW  581   2.987   3.186   2.910  0.3513 -0.0044 -0.2248
  149SOL    HW1  582   3.061   3.221   2.860  1.2138 -1.3487  0.0721
  149SOL    HW2  583   2.983   3.094   2.884 -0.4663 -0.2251  0.6764
  150SOL     OW  584   0.805   2.472   2.481  0.1165  0.4269  0.4717
  150SOL    HW1  585   0.764   2.555   2.456 -1.8440 -0.4626  0.5650
  150SOL    HW2  586   0.861   2.450   2.406 -1.0465  0.7697 -0.5318
  151SOL     OW  587   2.960   1.864   3.396 -0.5754  0.1708 -0.2623
  151SOL    HW1  588   2.920   1.777   3.394 -2.2585  0.7708  2.1284
  151SOL    HW2  589   3.052   1.848   3.416 -0.4740 -1.0925 -1.5970
  152SOL     OW  590   1.726   3.610   2.335  0.1785 -0.0562  0.0729
  152SOL    HW1  591   1.704   3.600   2.242  2.5028  0.6421 -0.6146
  152SOL    HW2  592   1.702   3.700   2.356  1.7477  0.5409 -0.5362
  153SOL     OW  593   2.909   1.694   4.543  0.0274  0.2597  0.0721
  153SOL    HW1  594   2.841   1.694   4.476  1.6195  3.0886 -1.7667
  153SOL    HW2  595   2.991   1.681   4.495  0.9943 -1.5189  2.0165
  154SOL     OW  596   1.885   1.492   0.313 -0.4374  0.1511  0.3575
  154SOL    HW1  597   1.814   1.466   0.254 -1.6996 -0.3450  2.0148
  154SOL    HW2  598   1.953   1.526   0.255 -0.6425 -2.4156 -1.5884
  155SOL     OW  599   0.747   3.900   2.705  0.1295  0.6676  0.5472
  155SOL    HW1  600   0.682   3.969   2.693 -0.5085  0.2178  1.2380
  155SOL    HW2  601   0.828   3.946   2.725 -0.7188  1.2661  3.1156
  156SOL     OW  602   3.068   2.723   2.122 -0.3544  0.3398  0.0798
  156SOL    HW1  603   2.980   2.687   2.113 -0.0595 -0.8627  1.6118
  156SOL    HW2  604   3.102   2.684   2.202  2.1277 -0.4198 -1.2276
  157SOL     OW  605   4.247   1.013   3.015  0.5572  0.3775 -0.0977
  157SOL    HW1  606   4.206   0.984   3.097  0.8962  1.1527  0.3598
  157SOL    HW2  607   4.216   1.104   3.004 -0.9034 -0.2562 -1.7641
  158SOL     OW  608   0.599   4.063   1.003  0.4565  0.0775 -0.1125
  158SOL    HW1  609   0.560   3.986   0.961 -0.4435  0.8118 -0.6554
  158SOL    HW2  610   0.611   4.126   0.932  0.2730  0.7939  0.4792
  159SOL     OW  611   0.835   4.537   0.345 -0.2433 -0.0432 -0.3027
  159SOL    HW1  612   0.863   4.478   0.416 -3.3175  2.3203  3.2552
  159SOL    HW2  613   0.887   4.617   0.359 -1.6159  0.8186  0.0174
  160SOL     OW  614   3.489   3.435   1.893 -0.5019 -0.2799  0.2749
  160SOL    HW1  615   3.521   3.417   1.805 -0.3182 -1.5904  0.5820
  160SOL    HW2  616   3.513   3.357   1.943  0.3200  0.8781  1.7417
  161SOL     OW  617   4.120   2.704   3.646  0.4980  0.4201 -0.0174
  161SOL    HW1  618   4.047   2.752   3.609 -0.4658 -0.3493  0.8367
  161SOL    HW2  619   4.101   2.698   3.740 -0.5362 -3.3923 -0.2991
  162SOL     OW  620   0.225   1.314   0.265 -0.0866  0.2842 -0.3281
  162SOL    HW1  621   0.156   1.255   0.297  1.4681 -0.3047  2.2068
  162SOL    HW2  622   0.226   1.386   0.328  3.9349 -1.5078  2.0297
  163SOL     OW  623   3.689   3.902   1.874  0.8921  0.6280 -0.5206
  163SOL    HW1  624   3.771   3.881   1.830  1.2177  0.2742  0.2519
  163SOL    HW2  625   3.710   3.901   1.967 -0.0682  0.1162 -0.2916
  164SOL     OW  626   3.110   0.701   1.449 -0.5830  0.2189  0.0032
  164SOL    HW1  627   3.065   0.701   1.365 -2.3553 -1.7331  0.8777
  164SOL    HW2  628   3.199   0.670   1.429 -1.1697 -0.8358 -1.0966
  165SOL     OW  629   2.598   0.962   0.659  0.0245  0.3419 -0.3931
  165SOL    HW1  630   2.613   0.944   0.752  1.0701  0.3670 -0.5525
  165SOL    HW2  631   2.515   0.917   0.640 -0.8747  1.4053  0.8436
  166SOL     OW  632   2.578   1.478   3.736 -0.8346 -0.0808 -0.0744
  166SOL    HW1  633   2.533   1.464   3.652 -2.1499  2.2330  0.1678
  166SOL    HW2  634   2.527   1.427   3.799 -3.0567  2.1926  0.1298
  167SOL     OW  635   3.633   0.532   2.875 -0.2851  0.0674 -0.2864
  167SOL    HW1  636   3.675   0.466   2.931  0.4324  1.2350  0.6104
  167SOL    HW2  637   3.692   0.542   2.801  0.6124  1.0711  0.5380
  168SOL     OW  638   2.541   1.243   0.885  0.0897  0.1849  0.2492
  168SOL    HW1  639   2.596   1.319   0.865  0.1080 -0.6111 -3.4590
  168SOL    HW2  640   2.604   1.174   0.907  0.4700 -0.0079 -1.3167
  169SOL     OW  641   3.372   1.443   0.711 -0.1571 -0.2101  0.0402
  169SOL    HW1  642   3.366   1.492   0.629  1.5153  2.7756  1.5311
  169SOL    HW2  643   3.427   1.368   0.690  0.2631  0.5062 -1.5657
  170SOL     OW  644   1.067   4.832   1.572 -0.0352 -0.2395  0.5544
  170SOL    HW1  645   1.018   4.913   1.588  0.0551 -0.1756  0.5074
  170SOL    HW2  646   1.063   4.820   1.477  0.4490  0.0246  0.4973
  171SOL     OW  647   2.450   2.772   4.321 -0.2673  0.7942 -0.1532
  171SOL    HW1  648   2.387   2.700   4.319 -0.2700  0.6024  2.4500
  171SOL    HW2  649   2.396   2.851   4.321 -0.5639  0.6398  1.4867
  172SOL     OW  650   1.154   2.863   4.117  0.0130  0.2173 -0.5071
  172SOL    HW1  651   1.073   2.813   4.113 -0.1363  0.4293 -0.1673
  172SOL    HW2  652   1.162   2.890   4.209  0.2722  0.5138 -0.6130
  173SOL     OW  653   3.021   3.167   0.501  0.1520 -0.5677 -0.0820
  173SOL    HW1  654   3.080   3.121   0.442 -0.3016 -0.1394 -0.8852
  173SOL    HW2  655   2.971   3.226   0.445 -0.1373  0.0179  0.7569
  174SOL     OW  656   1.508   3.084   1.789  0.1993  0.5116  0.6290
  174SOL    HW1  657   1.489   3.177   1.776 -0.4815  0.3952  0.7330
  174SOL    HW2  658   1.451   3.059   1.862  0.6720  0.1033  0.8612
  175SOL     OW  659   3.604   4.300   1.407 -0.3594  0.7674  0.0564
  175SOL    HW1  660   3.553   4.226   1.441  0.6703 -2.1453 -3.9083
  175SOL    HW2  661   3.561   4.322   1.324  2.8703  0.2932 -1.8954
  176SOL     OW  662   3.226   2.142   0.171 -0.0949 -0.4419  0.1921
  176SOL    HW1  663   3.237   2.053   0.139 -1.0134 -0.5777  0.2450
  176SOL    HW2  664   3.231   2.135   0.266  1.3965 -0.2062  0.1594
  177SOL     OW  665   4.421   1.568   2.589  0.3096 -1.3197 -0.1536
  177SOL    HW1  666   4.364   1.630   2.634  0.7440 -0.9686 -0.0802
  177SOL    HW2  667   4.361   1.505   2.549 -0.1063 -1.3618  0.5106
  178SOL     OW  668   4.647   0.324   2.378  0.5345  0.6653  0.0007
  178SOL    HW1  669   4.641   0.261   2.306  0.0700  0.1345  0.4954
  178SOL    HW2  670   4.607   0.280   2.452  0.3925  1.4687  0.4147
  179SOL     OW  671   1.032   4.754   1.308 -0.6054  0.7011 -0.3567
  179SOL    HW1  672   1.106   4.735   1.251  0.9018  0.8023  1.4546
  179SOL    HW2  673   1.000   4.668   1.335  1.0761  0.5713  1.4920
  180SOL     OW  674   0.569   4.852   1.346 -0.1868 -0.6241 -0.1174
  180SOL    HW1  675   0.637   4.786   1.360 -0.4381 -0.9672 -0.5038
  180SOL    HW2  676   0.613   4.935   1.365  0.7170 -0.7268 -1.5529
  181SOL     OW  677   0.672   4.216   4.938 -0.1622  0.1672 -0.0433
  181SOL    HW1  678   0.666   4.131   4.982 -0.5646  0.6255  0.8321
  181SOL    HW2  679   0.711   4.273   5.004 -1.0311  0.9404 -0.1793
  182SOL     OW  680   2.977   2.699   3.669  0.2238  0.1351  0.3950
  182SOL    HW1  681   2.972   2.651   3.751 -2.2788  1.4886  1.1726
  182SOL    HW2  682   3.020   2.781   3.692 -0.9028  0.7168  0.5376
  183SOL     OW  683   2.036   1.515   2.983 -0.0252 -0.0934  0.3656
  183SOL    HW1  684   2.032   1.428   2.943  1.7997 -0.6137  1.1737
  183SOL    HW2  685   2.003   1.574   2.916  0.3494 -1.2285 -0.8659
  184SOL     OW  686   0.106   0.175   1.341  0.1786  0.5235  0.3045
  184SOL    HW1  687   0.075   0.240   1.405 -1.1893 -2.5041  3.0239
  184SOL    HW2  688   0.201   0.180   1.347  0.0926  1.0076  1.9526
  185SOL     OW  689   2.473   0.995   2.471  0.7022 -0.1834  0.2204
  185SOL    HW1  690   2.469   0.940   2.393 -0.2862 -1.2369  0.9948
  185SOL    HW2  691   2.499   1.081   2.437 -0.2494 -0.4659 -1.3448
  186SOL     OW  692   4.738   0.357   3.865  0.0902  0.6168 -0.6388
  186SOL    HW1  693   4.654   0.393   3.836  0.1754  1.9506  0.6690
  186SOL    HW2  694   4.761   0.408   3.942  0.9273 -1.3529  0.4959
  187SOL     OW  695   3.211   0.112   4.671  0.1806 -0.3891 -0.0381
  187SOL    HW1  696   3.150   0.176   4.708 -0.5312 -1.8492  1.4454
  187SOL    HW2  697   3.154   0.043   4.636  0.9314 -0.2757 -1.5857
  188SOL     OW  698   1.355   5.002   4.166  0.3266  0.8192 -0.1352
  188SOL    HW1  699   1.263   5.030   4.163 -0.9364 -2.6840  1.5230
  188SOL    HW2  700   1.388   5.037   4.249 -0.7436 -1.0092  1.1279
  189SOL     OW  701   2.183   4.043   4.457  0.1587 -0.1494  0.0890
  189SOL    HW1  702   2.184   4.108   4.527  3.0957 -1.9890  1.9768
  189SOL    HW2  703   2.211   4.091   4.380 -2.1283  1.6995  0.2733
  190SOL     OW  704   3.317   2.802   4.456  0.3174  0.1860 -0.1073
  190SOL    HW1  705   3.408   2.828   4.442  0.3937  1.6716  2.5309
  190SOL    HW2  706   3.266   2.861   4.401  0.8400  1.7397  0.9929
  191SOL     OW  707   1.639   2.814   4.553 -0.6037 -0.0721  0.5835
  191SOL    HW1  708   1.611   2.830   4.463  0.3242 -1.1455  0.0789
  191SOL    HW2  709   1.630   2.899   4.596  2.3277  1.4326 -1.4566
  192SOL     OW  710   4.862   1.267   1.243 -0.0523 -0.3499  0.1104
  192SOL    HW1  711   4.850   1.198   1.177  0.2876 -0.1261 -0.1872
  192SOL    HW2  712   4.774   1.286   1.274 -0.2265 -0.3827 -0.3566
  193SOL     OW  713   2.200   1.376   0.871  0.1557 -0.0526 -0.7266
  193SOL    HW1  714   2.210   1.458   0.823  0.9124  1.0342  1.1630
  193SOL    HW2  715   2.290   1.344   0.881 -0.1158 -0.9810 -1.2169
  194SOL     OW  716   3.156   2.325   0.827  0.1650 -0.2572  0.2098
  194SOL    HW1  717   3.153   2.230   0.812  0.8657 -0.1035 -1.0164
  194SOL    HW2  718   3.109   2.362   0.752 -2.5611  0.2922  2.0486
  195SOL     OW  719   1.395   1.473   1.936 -0.0787 -0.0127  0.0907
  195SOL    HW1  720   1.346   1.428   2.005 -1.5117  1.0143 -0.2111
  195SOL    HW2  721   1.416   1.558   1.975 -0.7259  0.4987 -0.6430
  196SOL     OW  722   1.135   2.471   3.171 -0.0352 -0.3745 -0.4353
  196SOL    HW1  723   1.152   2.563   3.152 -0.2355 -0.7763 -2.9619
  196SOL    HW2  724   1.222   2.430   3.168  0.0635 -0.2943  0.7618
  197SOL     OW  725   0.646   0.808   4.667  0.4594  0.5015  0.3032
  197SOL    HW1  726   0.694   0.872   4.719  0.2498 -0.1279  1.2985
  197SOL    HW2  727   0.576   0.778   4.725  0.9264 -1.0820  0.0999
  198SOL     OW  728   0.862   3.428   2.573  0.3374  0.1286 -0.4525
  198SOL    HW1  729   0.933   3.373   2.606  0.6905  0.2797 -0.9438
  198SOL    HW2  730   0.885   3.517   2.600  0.0627  0.1098 -0.1548
  199SOL     OW  731   1.524   2.617   0.886  0.3648 -0.1341  0.3327
  199SOL    HW1  732   1.574   2.535   0.880 -0.8000 -0.8568  0.2701
  199SOL    HW2  733   1.577   2.672   0.943  0.5205 -1.4482  1.5251
  200SOL     OW  734   3.291   0.935   4.727  0.2433 -0.3189  0.8491
  200SOL    HW1  735   3.275   0.906   4.816 -1.1443  0.4660  0.8831
  200SOL    HW2  736   3.228   1.006   4.713  0.6465 -0.2203 -0.6454
  201SOL     OW  737  -0.015   0.522   0.806  0.4480  0.6028  0.2779
  201SOL    HW1  738  -0.001   0.448   0.865 -0.3032 -1.1833 -1.6391
  201SOL    HW2  739   0.026   0.495   0.724 -0.3964  2.0589 -0.6768
  202SOL     OW  740   0.261   4.328   4.009  0.4805  0.0163  0.0222
  202SOL    HW1  741   0.342   4.374   3.985  0.7417 -1.4128 -2.0594
  202SOL    HW2  742   0.193   4.395   4.000  1.1103  0.5785 -0.8122
  203SOL     OW  743   0.558   1.281   0.542 -0.5344  0.5591  0.1142
  203SOL    HW1  744   0.613   1.216   0.500  0.4450  1.9903 -0.8931
  203SOL    HW2  745   0.582   1.364   0.502 -2.3330  1.4645  0.7555
  204SOL     OW  746   3.932   1.339   3.099 -0.4555 -0.2002  0.0354
  204SOL    HW1  747   3.901   1.370   3.013  2.2135  2.9035  0.0155
  204SOL    HW2  748   3.876   1.385   3.162  0.1729  0.7190 -0.0559
  205SOL     OW  749   2.307   0.878   3.553  0.5107 -0.1211 -0.3199
  205SOL    HW1  750   2.353   0.832   3.624  0.5251  1.4133  0.7160
  205SOL    HW2  751   2.214   0.858   3.568  0.3893  1.1801  0.9404
  206SOL     OW  752   0.550   3.071   0.898  0.4178  0.1930 -0.0682
  206SOL    HW1  753   0.512   3.069   0.810  0.9368 -1.4749 -0.2885
  206SOL    HW2  754   0.566   2.980   0.919  0.9542  0.6181  1.4958
  207SOL     OW  755   4.567   1.717   3.343 -0.2585  0.6141 -0.3754
  207SOL    HW1  756   4.492   1.659   3.337 -0.1039  0.4761 -1.1106
  207SOL    HW2  757   4.530   1.805   3.339 -0.3121  0.5505 -2.0838
  208SOL     OW  758   1.804   4.690   0.478  0.3353  0.5708  0.1922
  208SOL    HW1  759   1.811   4.606   0.522 -1.8576  0.4032  0.3319
  208SOL    HW2  760   1.893   4.710   0.450  0.9586 -1.6452  0.4057
  209SOL     OW  761   4.770   4.275   1.846 -0.3993  0.2451 -0.3272
  209SOL    HW1  762   4.681   4.309   1.850 -1.0367 -1.3512 -0.2551
  209SOL    HW2  763   4.788   4.266   1.753 -0.6783 -0.3501 -0.3225
  210SOL     OW  764   1.246   1.084   2.405 -0.3120  0.0722 -0.1227
  210SOL    HW1  765   1.323   1.131   2.435  0.1733 -0.7788  0.0036
  210SOL    HW2  766   1.201   1.145   2.347 -1.6072  2.0078  2.7010
  211SOL     OW  767   4.390   2.647   4.866  0.3731 -0.2464  0.0875
  211SOL    HW1  768   4.469   2.630   4.918 -0.5673 -1.1576  1.2882
  211SOL    HW2  769   4.418   2.636   4.775  2.4443  2.8185  0.1882
  212SOL     OW  770   1.275   4.148   1.469 -0.2725  0.1291  0.1732
  212SOL    HW1  771   1.251   4.223   1.413 -1.0494  0.6103  1.1329
  212SOL    HW2  772   1.241   4.170   1.555  0.0813 -1.0459  0.6322
  213SOL     OW  773   3.908   4.908   3.435 -0.1385 -0.2812  0.0955
  213SOL    HW1  774   3.894   5.000   3.458  0.0538  0.0788 -1.1590
  213SOL    HW2  775   3.960   4.911   3.355 -0.5656 -1.4867 -0.2472
  214SOL     OW  776   1.055   1.120   4.904 -0.2993 -0.3769  0.2413
  214SOL    HW1  777   1.084   1.158   4.821  3.8100 -0.5722  1.3842
  214SOL    HW2  778   1.041   1.195   4.961 -1.4451 -0.3132 -0.1002
  215SOL     OW  779   3.174   2.437   3.397  0.1590  0.1125 -0.3022
  215SOL    HW1  780   3.153   2.350   3.430  1.5130 -0.0602  0.1659
  215SOL    HW2  781   3.121   2.447   3.318 -0.1989 -1.0335 -0.2156
  216SOL     OW  782   3.257   0.707   4.559  0.1441  0.4132  0.4039
  216SOL    HW1  783   3.351   0.689   4.556  0.2688  1.0911 -0.0788
  216SOL    HW2  784   3.251   0.801   4.574 -0.4279  0.6562 -1.1630
  217SOL     OW  785   2.686   3.214   0.373 -0.0561 -0.3424  0.0704
  217SOL    HW1  786   2.760   3.271   0.353 -0.5582  0.9353  1.6477
  217SOL    HW2  787   2.640   3.204   0.290 -1.0140  3.1544  0.0247
  218SOL     OW  788   0.407   4.450   2.430 -0.2612  1.1216 -0.6235
  218SOL    HW1  789   0.337   4.511   2.406  0.7677  2.0820 -1.3477
  218SOL    HW2  790   0.389   4.372   2.378 -1.1854  1.0766 -0.2553
  219SOL     OW  791   4.252   1.908   2.370  0.7702  0.0161  0.2321
  219SOL    HW1  792   4.236   1.829   2.422 -1.8582  0.5201  0.3155
  219SOL    HW2  793   4.264   1.876   2.281 -0.5619 -0.4951  0.2125
  220SOL     OW  794   2.707   2.517   1.624  0.2405  0.0483  0.8573
  220SOL    HW1  795   2.783   2.461   1.631  0.0509 -0.3043  0.1325
  220SOL    HW2  796   2.697   2.534   1.530 -0.8956 -0.3759  0.8798
  221SOL     OW  797   2.319   3.232   2.973 -0.1050  0.0559 -0.1212
  221SOL    HW1  798   2.259   3.305   2.956  0.8028  1.2443  1.5009
  221SOL    HW2  799   2.340   3.198   2.886 -2.0422  0.4658 -0.8072
  222SOL     OW  800   3.816   0.818   1.989  0.5188 -0.1938 -0.1580
  222SOL    HW1  801   3.807   0.732   1.949  1.7550  0.6318 -2.3788
  222SOL    HW2  802   3.765   0.877   1.933  1.5016  0.8711  0.0249
  223SOL     OW  803   4.791   1.219   1.565  0.4307  0.1587 -0.1842
  223SOL    HW1  804   4.809   1.223   1.659 -0.4564 -0.0311 -0.0018
  223SOL    HW2  805   4.847   1.287   1.527 -1.8220  2.7931  0.8830
  224SOL     OW  806   2.023   1.316   1.493 -0.2391 -0.3753  0.8257
  224SOL    HW1  807   2.049   1.385   1.554  1.1905 -0.1204 -0.0251
  224SOL    HW2  808   1.949   1.353   1.445 -0.7916 -0.2315  1.7694
  225SOL     OW  809   1.645   0.686   1.274  0.2364  0.4971 -0.2014
  225SOL    HW1  810   1.637   0.601   1.317  0.6417 -0.2354 -1.5179
  225SOL    HW2  811   1.734   0.715   1.294  0.6253 -0.1130 -1.0055
  226SOL     OW  812   1.206   2.933   0.242  0.3295  0.0440 -0.9889
  226SOL    HW1  813   1.296   2.916   0.214  0.5220 -0.8543  0.1214
  226SOL    HW2  814   1.168   2.846   0.258 -0.4865  0.4412 -0.6886
  227SOL     OW  815   2.389   3.290   0.254 -0.4574  0.3221  0.0524
  227SOL    HW1  816   2.401   3.368   0.308  0.2144 -0.2570  0.7612
  227SOL    HW2  817   2.334   3.320   0.182 -0.6161  1.3347  0.5654
  228SOL     OW  818   4.614   2.605   5.004  0.0366 -0.0928  0.8698
  228SOL    HW1  819   4.700   2.639   4.979  0.0546 -0.4368  0.4605
  228SOL    HW2  820   4.625   2.579   5.096  1.0624 -2.3006  0.1887
  229SOL     OW  821   2.475   0.301   1.583  0.2451  0.0711 -0.1249
  229SOL    HW1  822   2.412   0.315   1.654 -0.7583  0.6868 -1.0985
  229SOL    HW2  823   2.443   0.356   1.511  1.7673  0.2037 -0.7406
  230SOL     OW  824   0.311   1.928   0.019  0.2921 -0.2678  0.2755
  230SOL    HW1  825   0.237   1.923   0.079 -0.2386  1.1485 -0.2237
  230SOL    HW2  826   0.375   1.983   0.065 -0.6013  1.8528 -0.8736
  231SOL     OW  827   3.954   4.808   2.721  0.0040  0.6822 -0.0740
  231SOL    HW1  828   3.974   4.778   2.632 -2.0377 -0.8351 -0.1103
  231SOL    HW2  829   3.882   4.751   2.749 -1.0667  2.7480  1.6298
  232SOL     OW  830   4.200   2.845   4.171 -0.3541 -0.0782  0.1983
  232SOL    HW1  831   4.159   2.794   4.240 -1.1829 -0.7566 -0.7552
  232SOL    HW2  832   4.129   2.862   4.109  0.8373 -1.6293 -1.7198
  233SOL     OW  833   3.953   3.764   2.680  0.1446  0.0665 -0.0655
  233SOL    HW1  834   3.949   3.808   2.765 -1.4882 -1.7641  0.8761
  233SOL    HW2  835   4.033   3.713   2.683  0.1316  0.0628  0.3744
  234SOL     OW  836   3.032   1.204   1.268  0.4331  0.5193 -0.2465
  234SOL    HW1  837   2.963   1.167   1.323  1.1681 -0.5610 -0.0264
  234SOL    HW2  838   3.018   1.299   1.272  0.3920  0.4563  1.6930
  235SOL     OW  839   1.701   2.389   1.287 -0.5956 -0.3515 -0.0364
  235SOL    HW1  840   1.739   2.414   1.371  1.1177 -1.6798 -0.3547
  235SOL    HW2  841   1.631   2.452   1.272  0.3278  1.0977  1.4628
  236SOL     OW  842   2.133   1.220   2.701 -0.0853 -0.7778  0.2763
  236SOL    HW1  843   2.070   1.231   2.772  1.2137 -1.4639  1.5901
  236SOL    HW2  844   2.200   1.161   2.737 -0.4657 -2.9461 -2.2505
  237SOL     OW  845   1.571   3.076   4.340  0.7908  0.0698  0.3116
  237SOL    HW1  846   1.568   3.153   4.396 -0.3276  0.9785 -0.9350
  237SOL    HW2  847   1.657   3.078   4.299  0.7890  0.6293  0.3361
  238SOL     OW  848   1.076   3.932   3.810  0.0723 -0.9545 -0.4330
  238SOL    HW1  849   1.073   3.847   3.854 -0.8444 -1.9533 -2.2963
  238SOL    HW2  850   1.027   3.991   3.868 -0.9512 -2.1657 -0.0224
  239SOL     OW  851   2.311   1.511   4.327 -0.3836 -0.9531  0.3038
  239SOL    HW1  852   2.266   1.559   4.258  1.5555 -0.2373 -0.5257
  239SOL    HW2  853   2.370   1.575   4.367  0.3787 -1.9888  0.8924
  240SOL     OW  854   4.448   0.827   3.617 -0.1438  0.4543  0.0511
  240SOL    HW1  855   4.405   0.887   3.678  0.5610  1.6637 -0.6054
  240SOL    HW2  856   4.540   0.828   3.644 -0.1055 -0.2752 -0.0338
  241SOL     OW  857   0.675   3.500   1.681  0.6477  0.2766 -0.9843
  241SOL    HW1  858   0.599   3.559   1.681  0.4036  0.2082  2.7086
  241SOL    HW2  859   0.636   3.412   1.679  0.7438  0.2415 -1.2872
  242SOL     OW  860   4.565   1.355   0.044 -0.4792 -0.0253 -0.2363
  242SOL    HW1  861   4.591   1.325   0.131  2.0649  0.8744 -0.5998
  242SOL    HW2  862   4.542   1.447   0.056 -0.0172  0.1308 -0.5233
  243SOL     OW  863   1.398   3.819   0.702  0.3847  0.3802 -0.7352
  243SOL    HW1  864   1.410   3.850   0.792 -1.2018  0.5970 -0.5551
  243SOL    HW2  865   1.331   3.878   0.666  1.4427  0.6932 -2.2725
  244SOL     OW  866   4.242   3.122   4.820 -0.0321 -0.1091  0.3264
  244SOL    HW1  867   4.161   3.158   4.784 -0.8221 -1.9838  0.0978
  244SOL    HW2  868   4.239   3.029   4.798  1.7175 -0.4204  1.1904
  245SOL     OW  869   4.244   1.052   2.046  0.5162 -0.1579  0.1055
  245SOL    HW1  870   4.314   0.991   2.069 -0.1795 -0.9208  0.2329
  245SOL    HW2  871   4.167   1.019   2.092 -0.0437  0.4023 -0.4040
  246SOL     OW  872   0.514   3.029   4.048  0.2059 -0.5576 -0.3292
  246SOL    HW1  873   0.535   2.935   4.051  2.1220 -0.1376  0.3722
  246SOL    HW2  874   0.469   3.046   4.130 -0.6172 -0.9369 -0.6825
  247SOL     OW  875   4.246   2.333   3.195 -0.5087 -0.3453 -0.8533
  247SOL    HW1  876   4.177   2.302   3.254  0.3327 -0.2333  0.2162
  247SOL    HW2  877   4.269   2.420   3.228  0.7690 -0.7480 -0.6161
  248SOL     OW  878   0.244   1.867   3.431 -0.0799  0.0769  0.2506
  248SOL    HW1  879   0.191   1.947   3.437 -0.7332 -0.3843  0.7005
  248SOL    HW2  880   0.180   1.797   3.420  0.5457 -0.2250 -2.0286
  249SOL     OW  881   0.365   5.016   2.873 -0.1880 -0.3550  0.4270
  249SOL    HW1  882   0.380   5.099   2.827 -0.5098 -0.0517  0.8663
  249SOL    HW2  883   0.448   4.970   2.867  0.0574  0.0915  0.3722
  250SOL     OW  884   4.095   2.963   1.851 -0.0932  0.7427 -0.0947
  250SOL    HW1  885   4.057   3.051   1.851 -0.8074  0.5277  2.7453
  250SOL    HW2  886   4.188   2.977   1.869 -0.1258  0.9178 -0.0657
  251SOL     OW  887   0.441   3.736   2.922 -0.2620  0.4779 -0.4930
  251SOL    HW1  888   0.474   3.655   2.884  1.2654  0.4190  0.8540
  251SOL    HW2  889   0.518   3.792   2.929 -0.7978  1.0708  0.9812
  252SOL     OW  890   2.074   1.106   4.316  0.1211 -0.1810 -0.3797
  252SOL    HW1  891   2.068   1.020   4.357  1.4126  0.6180  1.6461
  252SOL    HW2  892   2.148   1.148   4.360  0.2430  1.5430 -2.1272
  253SOL     OW  893   4.856   4.687   4.394 -0.0294 -0.1766 -0.1269
  253SOL    HW1  894   4.830   4.779   4.396  0.0817 -0.1517  0.3594
  253SOL    HW2  895   4.800   4.648   4.327 -0.5970  0.0945  0.1799
  254SOL     OW  896   3.749   1.366   3.632  0.0028  0.4039  0.2575
  254SOL    HW1  897   3.822   1.312   3.602 -0.1068  0.2741  0.2252
  254SOL    HW2  898   3.672   1.326   3.592 -0.3912 -0.9021  2.1811
  255SOL     OW  899   2.632   4.991   1.484  0.3183 -0.3768  0.1014
  255SOL    HW1  900   2.666   5.074   1.519 -0.9918 -0.8030  2.6227
  255SOL    HW2  901   2.659   4.925   1.548 -4.6255 -0.8223  2.1612
  256SOL     OW  902   0.204   1.056   1.363 -0.2322 -0.1057  0.3111
  256SOL    HW1  903   0.287   1.011   1.376  0.2556 -0.0133 -2.1043
  256SOL    HW2  904   0.139   0.995   1.399  0.8497  0.1869  3.0034
  257SOL     OW  905   0.483   0.033   2.550 -0.2311 -0.4073 -0.1404
  257SOL    HW1  906   0.519   0.041   2.639 -1.3418 -0.2693  0.3185
  257SOL    HW2  907   0.395   0.068   2.557  0.3695  1.5935 -1.8016
  258SOL     OW  908   1.037   2.012   4.214 -0.0302 -0.3096 -0.2090
  258SOL    HW1  909   0.996   2.019   4.127  1.2500 -0.9023 -0.8861
  258SOL    HW2  910   1.080   1.927   4.213 -0.2981 -0.4875  1.1648
  259SOL     OW  911   1.456   0.924   0.019 -0.1068 -0.1699 -0.1404
  259SOL    HW1  912   1.486   0.870   0.093  1.0713 -0.1257 -0.5631
  259SOL    HW2  913   1.361   0.931   0.031  0.1409  0.5513  1.8619
  260SOL     OW  914   3.667   2.211   4.630  0.6569 -0.0662 -0.1134
  260SOL    HW1  915   3.625   2.294   4.653 -0.1963 -0.2134 -1.0745
  260SOL    HW2  916   3.662   2.159   4.710  1.8156  1.0254  0.7213
  261SOL     OW  917   0.112   0.113   2.873 -0.3290 -0.5986 -0.4601
  261SOL    HW1  918   0.051   0.138   2.943  0.8248  0.7006  0.1190
  261SOL    HW2  919   0.175   0.056   2.916  1.5941  1.8279  0.1498
  262SOL     OW  920   1.485   3.105   3.104 -0.2239 -0.6834 -0.1184
  262SOL    HW1  921   1.511   3.197   3.105 -0.3308 -0.6114  2.2414
  262SOL    HW2  922   1.447   3.092   3.017  0.0611  1.4180 -0.6242
  263SOL     OW  923   2.639   0.418   2.661  0.6225 -0.7630 -0.1884
  263SOL    HW1  924   2.574   0.450   2.598  2.6963  0.0346 -2.0855
  263SOL    HW2  925   2.622   0.468   2.741 -1.5575 -1.1808 -0.3315
  264SOL     OW  926   4.706   3.193   3.734 -0.3336  0.9839 -0.5009
  264SOL    HW1  927   4.632   3.169   3.790  0.4490 -1.8038 -0.5246
  264SOL    HW2  928   4.783   3.181   3.790  0.2515  1.5076 -1.1826
  265SOL     OW  929   3.500   3.282   0.815 -0.1381  0.4520 -0.2282
  265SOL    HW1  930   3.525   3.199   0.857 -1.0431  0.3225  0.0939
  265SOL    HW2  931   3.533   3.274   0.726  2.8598  1.2128  0.6965
  266SOL     OW  932   4.046   2.620   3.879 -0.4755  0.0965  0.2209
  266SOL    HW1  933   4.076   2.532   3.905  1.6081  0.6099 -0.2908
  266SOL    HW2  934   4.001   2.653   3.957  0.7049 -0.5808  1.2399
  267SOL     OW  935   1.643   0.211   3.000 -0.1911  0.1964 -0.1480
  267SOL    HW1  936   1.644   0.118   3.020  2.0285 -0.1510 -1.5618
  267SOL    HW2  937   1.573   0.221   2.935 -1.2925 -0.2335  0.9481
  268SOL     OW  938   0.607   3.219   1.621 -0.3181 -0.3126 -0.5442
  268SOL    HW1  939   0.576   3.146   1.675 -2.3444  0.0478 -1.1397
  268SOL    HW2  940   0.646   3.177   1.545  2.0669 -0.8112  0.8545
  269SOL     OW  941   2.634   1.994   2.558  0.2305  0.4179 -0.4445
  269SOL    HW1  942   2.592   2.080   2.554  1.1661  0.9532  0.6777
  269SOL    HW2  943   2.561   1.932   2.555 -0.8677  1.3476  2.8772
  270SOL     OW  944   2.946   4.834   3.732 -0.1321  0.7596  0.4233
  270SOL    HW1  945   2.983   4.901   3.675  0.3143  0.8900  0.8591
  270SOL    HW2  946   2.853   4.858   3.741  0.4071  2.4702  2.1418
  271SOL     OW  947   4.992   2.521   0.306  0.1383  0.3846 -0.0065
  271SOL    HW1  948   5.058   2.538   0.240  0.3762  0.1815  0.1780
  271SOL    HW2  949   5.041   2.497   0.384 -0.1591 -1.6780 -0.3763
  272SOL     OW  950   1.345   3.582   3.711  0.1591  0.2307 -0.5052
  272SOL    HW1  951   1.357   3.676   3.724  0.0743  0.4032 -1.5783
  272SOL    HW2  952   1.382   3.564   3.624  2.6348 -1.2211  0.7079
  273SOL     OW  953   3.164   4.405   3.302  0.7984  0.3139  0.5343
  273SOL    HW1  954   3.092   4.367   3.354  1.6778  0.9636  2.3052
  273SOL    HW2  955   3.163   4.498   3.324  1.6466  0.4741 -0.0777
  274SOL     OW  956   1.317   3.638   1.637  0.3296 -0.0231 -0.2605
  274SOL    HW1  957   1.385   3.697   1.668 -0.3120  1.3093 -1.2884
  274SOL    HW2  958   1.254   3.634   1.709  1.7127 -1.7786  0.9677
  275SOL     OW  959   0.750   4.704   3.001  0.0254  0.4076  0.2017
  275SOL    HW1  960   0.788   4.734   2.919  0.6793  0.7205  0.6083
  275SOL    HW2  961   0.772   4.772   3.064  0.3762 -0.2888  0.8509
  276SOL     OW  962   4.574   4.696   2.175  0.2414 -0.7231  0.4933
  276SOL    HW1  963   4.602   4.755   2.105  0.3582  0.7376  1.7157
  276SOL    HW2  964   4.491   4.733   2.205  1.9861  1.1069  3.6773
  277SOL     OW  965   0.083   2.094   1.449  0.0072  0.3356  0.4028
  277SOL    HW1  966   0.142   2.054   1.385 -1.4944  0.4343 -1.1321
  277SOL    HW2  967   0.030   2.021   1.482 -2.7106  0.7955 -2.3762
  278SOL     OW  968   0.880   2.974   4.457  0.5327  0.4758  0.4206
  278SOL    HW1  969   0.816   2.989   4.526  0.5954 -1.1922  0.8794
  278SOL    HW2  970   0.828   2.955   4.379  0.4702  1.6084  0.1718
  279SOL     OW  971   0.915   1.679   1.541 -0.0239 -0.1667 -0.4582
  279SOL    HW1  972   0.892   1.609   1.479  0.4672  0.1403 -0.9925
  279SOL    HW2  973   1.007   1.663   1.562 -0.5898 -1.2203  1.4466
  280SOL     OW  974   3.935   1.332   2.286 -0.5015 -0.7020 -0.0438
  280SOL    HW1  975   3.953   1.240   2.303 -0.3817 -0.6635  0.0356
  280SOL    HW2  976   3.880   1.332   2.207  0.3085 -0.7887 -0.6167
  281SOL     OW  977   3.750   0.517   1.749 -0.5511 -0.1634  0.3880
  281SOL    HW1  978   3.732   0.564   1.667  1.1055  0.6447  0.4532
  281SOL    HW2  979   3.807   0.445   1.723 -0.6567 -0.3659  0.7201
  282SOL     OW  980   2.991   3.595   1.826  0.0125  0.6688  0.0318
  282SOL    HW1  981   3.081   3.629   1.823  0.3945  0.1651  2.6811
  282SOL    HW2  982   2.985   3.551   1.912 -2.5149 -0.0555 -0.4238
  283SOL     OW  983   1.623   1.505   2.469 -0.0888 -0.1889 -0.4321
  283SOL    HW1  984   1.692   1.439   2.467 -1.4399 -1.6683 -0.5006
  283SOL    HW2  985   1.585   1.498   2.556  0.1200  0.9213 -0.2384
  284SOL     OW  986   0.150   4.182   0.683 -0.1343  0.0852 -0.3473
  284SOL    HW1  987   0.178   4.091   0.690  0.6438  0.3193 -0.3465
  284SOL    HW2  988   0.083   4.192   0.751 -1.7766 -1.0376 -1.7127
  285SOL     OW  989   2.495   0.528   2.879 -0.1394  0.3744  0.0716
  285SOL    HW1  990   2.500   0.622   2.896  0.8606  0.1163  1.4312
  285SOL    HW2  991   2.407   0.504   2.906 -1.1173  1.1935 -2.1114
  286SOL     OW  992   4.105   3.126   0.747  0.0427 -0.1723  0.8640
  286SOL    HW1  993   4.105   3.031   0.755  0.2817 -0.2128  0.4210
  286SOL    HW2  994   4.154   3.157   0.824 -0.8042 -0.3521  1.4973
  287SOL     OW  995   2.105   3.692   4.680  0.1056  0.3894 -0.7224
  287SOL    HW1  996   2.188   3.662   4.718  0.6999  1.7834 -0.8470
  287SOL    HW2  997   2.057   3.729   4.754 -1.3060 -2.1896 -0.2634
  288SOL     OW  998   0.359   4.207   0.996  0.2264 -0.1553 -0.2570
  288SOL    HW1  999   0.292   4.140   0.983  0.4383 -0.1779 -1.3302
  288SOL    HW2 1000   0.433   4.159   1.034 -0.2124 -0.2035  0.5551
  289SOL     OW 1001   2.292   3.542   0.297 -0.0839 -0.5281 -0.1270
  289SOL    HW1 1002   2.278   3.525   0.204 -0.2743  1.6113 -0.5293
  289SOL    HW2 1003   2.378   3.584   0.301 -0.5709  0.4519  0.5071
  290SOL     OW 1004   0.838   0.786   4.461  0.4215  0.2035 -0.2041
  290SOL    HW1 1005   0.757   0.789   4.511 -0.7071  0.1148 -1.9446
  290SOL    HW2 1006   0.907   0.779   4.527 -1.0656 -1.2869  1.2792
  291SOL     OW 1007   1.758   0.286   4.966  0.1789  0.8851 -0.4777
  291SOL    HW1 1008   1.845   0.260   4.937 -0.8997 -3.1846 -0.5578
  291SOL    HW2 1009   1.770   0.311   5.058  1.4378  0.5966 -0.5520
  292SOL     OW 1010   1.172   2.464   4.985  0.0394 -0.0630 -0.5218
  292SOL    HW1 1011   1.232   2.471   4.911  0.4753 -2.6386 -0.5028
  292SOL    HW2 1012   1.226   2.431   5.057 -0.0332  3.7099  1.5093
  293SOL     OW 1013   4.479   3.428   4.316 -0.2231  0.2896 -0.3333
  293SOL    HW1 1014   4.573   3.414   4.301 -0.5687 -3.4993  0.1902
  293SOL    HW2 1015   4.476   3.505   4.373  2.9992 -1.9661  3.4309
  294SOL     OW 1016   0.749   1.090   0.487  0.2048  0.0371  0.0946
  294SOL    HW1 1017   0.755   0.998   0.510 -2.1667 -0.0062  0.8149
  294SOL    HW2 1018   0.796   1.097   0.404  0.4828 -1.7884  0.0546
  295SOL     OW 1019   0.291   3.457   1.885  0.0644 -0.3809 -0.1785
  295SOL    HW1 1020   0.321   3.440   1.796  1.4981  1.6907 -0.1564
  295SOL    HW2 1021   0.371   3.476   1.934 -0.9305  1.6589  0.7793
  296SOL     OW 1022   2.647   4.388   2.830  0.4583 -0.4436 -0.0240
  296SOL    HW1 1023   2.675   4.420   2.744  0.7208 -0.6752 -0.0229
  296SOL    HW2 1024   2.618   4.467   2.876  0.5003 -0.2927 -0.2551
  297SOL     OW 1025   1.058   0.145   1.253 -0.3947  0.7092 -0.1656
  297SOL    HW1 1026   0.998   0.168   1.183  0.1987  0.6451 -0.7061
  297SOL    HW2 1027   1.091   0.228   1.286 -2.1764  0.8576  1.4189
  298SOL     OW 1028   3.885   0.271   0.800 -0.4678  0.3738  0.1199
  298SOL    HW1 1029   3.840   0.332   0.859 -1.8906  0.5146 -1.0482
  298SOL    HW2 1030   3.887   0.188   0.849  2.3099  1.4410  2.1085
  299SOL     OW 1031   3.335   4.471   0.526  0.1704 -0.0839 -0.0983
  299SOL    HW1 1032   3.272   4.506   0.589  0.8510  1.1941 -0.0932
  299SOL    HW2 1033   3.420   4.480   0.570  0.5768  0.1641 -0.9203
  300SOL     OW 1034   3.036   1.865   4.954 -0.3520  0.3397 -0.0092
  300SOL    HW1 1035   2.987   1.875   5.036 -0.4214  1.2081 -0.1515
  300SOL    HW2 1036   3.081   1.948   4.942 -1.8086  0.9404 -1.7920
  301SOL     OW 1037   4.910   1.621   1.208  0.2613 -0.3994  0.3092
  301SOL    HW1 1038   4.983   1.578   1.163 -1.0549 -2.7395  0.2757
  301SOL    HW2 1039   4.857   1.659   1.137  0.2382 -0.6919  0.1711
  302SOL     OW 1040   2.695   4.149   1.830 -0.5010 -0.0367 -0.5089
  302SOL    HW1 1041   2.678   4.068   1.783  0.1641  0.2061 -1.1790
  302SOL    HW2 1042   2.624   4.154   1.895 -0.4278 -1.2465 -0.3189
  303SOL     OW 1043   3.059   0.561   0.221 -0.3200 -0.0591 -0.8374
  303SOL    HW1 1044   3.039   0.644   0.177  1.8263  1.4327  0.8045
  303SOL    HW2 1045   3.091   0.587   0.308  3.4588 -2.3340 -1.3264
  304SOL     OW 1046   1.748   1.089   4.528  0.2116  0.0588 -0.1488
  304SOL    HW1 1047   1.671   1.067   4.580 -0.3765  0.6974 -0.7387
  304SOL    HW2 1048   1.820   1.085   4.591 -0.5437  1.2852  0.8535
  305SOL     OW 1049   4.742   2.405   1.232 -0.3786 -0.1590 -0.1948
  305SOL    HW1 1050   4.736   2.319   1.272  6.3291 -1.3160 -0.4577
  305SOL    HW2 1051   4.759   2.464   1.306 -0.9870  0.1729 -0.3206
  306SOL     OW 1052   3.204   3.900   0.843  0.5033  0.2509 -0.7702
  306SOL    HW1 1053   3.232   3.815   0.809  2.6633  1.8300 -3.3602
  306SOL    HW2 1054   3.233   3.900   0.934 -3.1391 -3.1765  0.6600
  307SOL     OW 1055   4.765   3.624   1.771  0.0058  1.2687  0.1791
  307SOL    HW1 1056   4.806   3.568   1.704 -0.0248 -1.3739  2.2244
  307SOL    HW2 1057   4.836   3.643   1.833 -0.0059  3.5547 -0.4282
  308SOL     OW 1058   3.510   4.497   2.335 -0.1878 -0.2506  0.1891
  308SOL    HW1 1059   3.421   4.471   2.314 -0.0044 -1.1536  0.5064
  308SOL    HW2 1060   3.553   4.509   2.250 -0.3683 -0.6645  0.0404
  309SOL     OW 1061   4.281   2.282   1.836  0.6817  0.2874  0.6002
  309SOL    HW1 1062   4.282   2.199   1.787  2.1556 -0.0504  1.1266
  309SOL    HW2 1063   4.242   2.259   1.920 -1.8581  0.8692 -0.3382
  310SOL     OW 1064   0.825   2.952   4.748  0.0898 -0.1335  0.6692
  310SOL    HW1 1065   0.912   2.912   4.740 -0.1116 -0.2763 -1.0953
  310SOL    HW2 1066   0.764   2.882   4.728 -0.3709  0.3829  0.2442
  311SOL     OW 1067   2.088   0.180   2.740 -0.1271 -0.1285 -0.6798
  311SOL    HW1 1068   2.050   0.247   2.683 -1.0769  2.0283  2.2054
  311SOL    HW2 1069   2.033   0.103   2.728 -0.6337  0.4429 -2.1867
  312SOL     OW 1070   2.465   0.540   0.400 -0.1396  0.2052 -0.1957
  312SOL    HW1 1071   2.476   0.503   0.313  0.2846  1.3805 -0.6562
  312SOL    HW2 1072   2.526   0.490   0.455 -1.5121 -1.5963 -0.2046
  313SOL     OW 1073   2.043   3.802   2.163  0.0712 -0.2676 -0.0697
  313SOL    HW1 1074   2.056   3.710   2.140  0.7027 -0.1576 -0.1675
  313SOL    HW2 1075   2.053   3.805   2.258  0.2213 -0.2701 -0.0859
  314SOL     OW 1076   2.877   3.384   0.353 -0.0736  0.1726 -0.3762
  314SOL    HW1 1077   2.895   3.428   0.270 -0.1317 -0.0840 -0.5231
  314SOL    HW2 1078   2.890   3.453   0.419  2.5785 -0.2491 -0.3570
  315SOL     OW 1079   0.602   1.077   0.079 -0.2611 -0.4195 -1.1228
  315SOL    HW1 1080   0.583   1.153   0.133  3.1738 -0.1369 -0.0448
  315SOL    HW2 1081   0.658   1.111   0.009 -0.7008 -1.5744 -2.0740
  316SOL     OW 1082   1.115   0.107   4.139  0.7411 -0.1299 -0.5576
  316SOL    HW1 1083   1.100   0.201   4.148 -0.6966 -0.4626  0.9264
  316SOL    HW2 1084   1.116   0.092   4.044 -0.4619  1.1875 -0.8115
  317SOL     OW 1085   4.799   2.291   2.713 -0.0167 -0.2636  0.8375
  317SOL    HW1 1086   4.755   2.333   2.787 -0.2175 -2.6586  2.1459
  317SOL    HW2 1087   4.750   2.321   2.636 -0.1702  1.8045  1.6735
  318SOL     OW 1088   1.791   2.436   1.550  0.0299  0.0146  0.2249
  318SOL    HW1 1089   1.869   2.385   1.570  1.1311  1.4266 -0.3252
  318SOL    HW2 1090   1.730   2.414   1.621  1.0044 -0.9174  0.8080
  319SOL     OW 1091   0.591   2.307   2.236  0.1667 -0.2227  0.2274
  319SOL    HW1 1092   0.591   2.363   2.158  3.1465 -1.3439 -0.6876
  319SOL    HW2 1093   0.580   2.369   2.309  0.6231  1.2365 -0.8908
  320SOL     OW 1094   4.998   3.843   0.844 -0.3668 -0.2872 -0.1693
  320SOL    HW1 1095   4.907   3.860   0.869 -0.6414 -3.1264  1.1918
  320SOL    HW2 1096   4.997   3.844   0.748 -2.5664 -3.0343 -0.3045
  321SOL     OW 1097   5.039   0.970   0.790  0.2718  0.2303 -0.1045
  321SOL    HW1 1098   4.980   1.043   0.771 -1.1527 -0.7181  0.4802
  321SOL    HW2 1099   4.995   0.894   0.752  1.5726 -0.3862 -0.4191
  322SOL     OW 1100   4.530   0.458   3.003  0.1797  0.3885  0.0627
  322SOL    HW1 1101   4.622   0.454   3.026 -0.3935  2.9087  3.7242
  322SOL    HW2 1102   4.520   0.543   2.960 -0.6938  1.3281  1.9763
  323SOL     OW 1103   3.331   3.667   0.097  0.3731 -0.6139  0.0505
  323SOL    HW1 1104   3.418   3.704   0.112  0.0639 -0.6320  2.2390
  323SOL    HW2 1105   3.347   3.588   0.046  1.5737 -0.2462 -0.1715
  324SOL     OW 1106   3.369   1.821   0.807 -0.1904  0.3539  0.3362
  324SOL    HW1 1107   3.354   1.839   0.899 -0.3773  1.6756  0.0704
  324SOL    HW2 1108   3.364   1.725   0.799  0.2028  0.2031  1.7420
  325SOL     OW 1109   2.153   4.906   4.398  0.0475 -0.1461  0.2391
  325SOL    HW1 1110   2.215   4.874   4.463 -0.6906 -0.9599  0.5690
  325SOL    HW2 1111   2.122   4.828   4.352  0.7171  0.4373 -1.2639
  326SOL     OW 1112   0.551   2.612   4.347  0.1425  0.5472  0.4758
  326SOL    HW1 1113   0.584   2.526   4.376 -0.9638  0.3280  1.1814
  326SOL    HW2 1114   0.517   2.652   4.427 -1.9030  0.4508 -0.2754
  327SOL     OW 1115   1.112   2.604   3.595 -0.1046 -0.0424 -0.3882
  327SOL    HW1 1116   1.130   2.696   3.575 -2.1768  0.7561  1.1148
  327SOL    HW2 1117   1.128   2.596   3.689 -3.4129 -0.2021  0.2808
  328SOL     OW 1118   1.983   3.210   3.333 -0.5256  0.2856 -0.5365
  328SOL    HW1 1119   2.045   3.182   3.265  0.1549  0.1296  0.1374
  328SOL    HW2 1120   2.026   3.188   3.415 -0.8528  1.5052 -0.0160
  329SOL     OW 1121   2.811   1.770   1.482  0.0077  0.7827  0.3183
  329SOL    HW1 1122   2.804   1.857   1.520 -0.9073  0.3941  1.0814
  329SOL    HW2 1123   2.850   1.717   1.552 -0.5043  0.3327  0.2633
  330SOL     OW 1124   1.895   0.079   1.319 -0.5949 -0.6695 -0.6017
  330SOL    HW1 1125   1.970   0.036   1.279 -0.7087 -2.1104  0.6469
  330SOL    HW2 1126   1.826   0.013   1.319 -1.5681  0.3267 -0.8722
  331SOL     OW 1127   1.636   4.997   1.332 -0.0249 -0.3251 -0.7872
  331SOL    HW1 1128   1.650   4.919   1.386 -0.2893 -0.5546 -1.0426
  331SOL    HW2 1129   1.592   4.964   1.253 -3.4588  0.4935  0.5734
  332SOL     OW 1130   4.049   4.986   2.912 -0.1018 -0.2181 -0.2629
  332SOL    HW1 1131   4.020   4.920   2.849 -0.0273  0.1966 -0.7472
  332SOL    HW2 1132   4.116   5.036   2.864 -0.8369  0.8150 -0.2497
  333SOL     OW 1133   3.960   2.451   0.754  0.0625 -0.0231 -0.4077
  333SOL    HW1 1134   4.055   2.446   0.763 -0.0906 -2.8680  0.8625
  333SOL    HW2 1135   3.942   2.416   0.667  0.1452 -1.2520  0.0444
  334SOL     OW 1136   2.920   4.411   0.389  0.1473  0.3960 -0.6924
  334SOL    HW1 1137   2.953   4.473   0.324 -1.7948  1.2612 -0.9288
  334SOL    HW2 1138   2.878   4.342   0.338  0.3199  0.0657 -0.3888
  335SOL     OW 1139   2.855   3.408   2.889  0.4505 -0.5590  0.2268
  335SOL    HW1 1140   2.899   3.323   2.899 -0.4296 -1.0351  0.2015
  335SOL    HW2 1141   2.763   3.389   2.909  0.6933  1.0457  3.6313
  336SOL     OW 1142   2.337   3.524   3.675  0.1061  0.0098  0.2919
  336SOL    HW1 1143   2.425   3.493   3.654  0.6141  1.2228  0.5041
  336SOL    HW2 1144   2.283   3.446   3.675  1.0118 -0.6489 -0.7452
  337SOL     OW 1145   1.241   3.729   0.033  0.3164 -0.0278  0.1251
  337SOL    HW1 1146   1.185   3.651   0.035  0.5539 -0.2059 -0.1241
  337SOL    HW2 1147   1.181   3.802   0.051 -0.3161 -0.0147 -1.8068
  338SOL     OW 1148   0.862   2.332   1.773 -0.1177 -0.3609  0.3364
  338SOL    HW1 1149   0.845   2.269   1.702  0.2958 -0.4366  0.3010
  338SOL    HW2 1150   0.935   2.293   1.822  0.2626  0.1749  0.2037
  339SOL     OW 1151   0.517   3.395   3.217  0.7603  0.0574  0.2540
  339SOL    HW1 1152   0.559   3.310   3.205  0.4111  0.1116 -1.7953
  339SOL    HW2 1153   0.462   3.384   3.294  0.1286 -1.8552 -0.4091
  340SOL     OW 1154   3.783   4.353   0.076  0.0051  0.1491  0.5984
  340SOL    HW1 1155   3.756   4.309   0.157  0.3738 -0.7911  0.2109
  340SOL    HW2 1156   3.748   4.442   0.086  0.2779  0.1341  1.9139
  341SOL     OW 1157   3.417   2.559   0.357  0.2829 -0.2882 -0.6791
  341SOL    HW1 1158   3.510   2.545   0.339  0.4584 -1.0926  0.7657
  341SOL    HW2 1159   3.415   2.596   0.445 -0.8054 -1.1150 -0.3408
  342SOL     OW 1160   2.072   4.097   2.606 -0.5685 -0.0788  0.4794
  342SOL    HW1 1161   1.989   4.077   2.651 -0.9340  0.7208  0.1799
  342SOL    HW2 1162   2.087   4.022   2.549 -1.5701  0.1700 -0.1450
  343SOL     OW 1163   3.182   0.279   3.171 -1.2793  0.3337  0.0636
  343SOL    HW1 1164   3.137   0.298   3.088 -0.6685 -0.6172 -0.5141
  343SOL    HW2 1165   3.264   0.328   3.167 -1.5778  0.8672  0.4371
  344SOL     OW 1166   0.083   4.821   4.115 -0.3899  0.1737  0.6426
  344SOL    HW1 1167   0.080   4.854   4.025  0.7897 -1.0588  0.1277
  344SOL    HW2 1168  -0.001   4.775   4.126 -0.8426  0.9278  0.4298
  345SOL     OW 1169   4.122   4.109   4.503  0.0860  0.2553 -0.0347
  345SOL    HW1 1170   4.209   4.128   4.467  0.6917 -0.5631  0.9067
  345SOL    HW2 1171   4.119   4.014   4.509 -0.5536  0.3084  0.6862
  346SOL     OW 1172   2.178   2.012   3.183  0.3526  0.3550  0.6952
  346SOL    HW1 1173   2.202   2.046   3.096  0.7068  2.1636  1.4684
  346SOL    HW2 1174   2.115   1.942   3.164  1.3472 -0.1517 -1.0714
  347SOL     OW 1175   1.632   4.370   0.806 -0.4295 -0.2520 -0.0861
  347SOL    HW1 1176   1.637   4.388   0.900  0.7864  0.3414 -0.2421
  347SOL    HW2 1177   1.544   4.335   0.792 -1.5953  2.1148  0.8461
  348SOL     OW 1178   2.265   0.962   1.938  0.3964 -0.2731 -0.0375
  348SOL    HW1 1179   2.177   0.976   1.904  0.4736  1.2195  0.2636
  348SOL    HW2 1180   2.252   0.939   2.030  0.2899  3.4208  1.0544
  349SOL     OW 1181   4.734   1.135   3.542  0.6103  0.6372  0.3493
  349SOL    HW1 1182   4.716   1.165   3.453 -1.6933 -0.9245  0.2041
  349SOL    HW2 1183   4.676   1.187   3.597  0.9171  0.5333  0.7747
  350SOL     OW 1184   3.030   4.106   0.969  0.1373 -0.0426  0.2434
  350SOL    HW1 1185   3.060   4.188   0.929  0.1304  0.1377  0.6105
  350SOL    HW2 1186   3.076   4.038   0.920 -0.4886  0.1385 -0.6259
  351SOL     OW 1187   0.890   2.506   0.346 -0.0538 -0.5458  0.6646
  351SOL    HW1 1188   0.958   2.573   0.336  1.5015 -2.1313  0.1607
  351SOL    HW2 1189   0.937   2.427   0.372 -2.0458 -1.0124  3.2488
  352SOL     OW 1190   4.574   2.013   0.094 -0.3573 -0.2599 -0.4270
  352SOL    HW1 1191   4.563   1.939   0.154  0.7449  0.2314  0.4197
  352SOL    HW2 1192   4.596   1.973   0.010 -0.2852 -0.9194 -0.0982
  353SOL     OW 1193   4.850   0.521   2.461 -0.4241  0.0292  0.1205
  353SOL    HW1 1194   4.925   0.525   2.401 -1.1299  0.6640 -0.7347
  353SOL    HW2 1195   4.798   0.447   2.429 -0.2562 -0.3115  0.6206
  354SOL     OW 1196   2.649   3.304   2.690 -0.0431 -0.2010  0.3915
  354SOL    HW1 1197   2.644   3.387   2.642 -1.8410 -0.7512 -0.4544
  354SOL    HW2 1198   2.716   3.253   2.644  4.2944  2.1432  3.3509
  355SOL     OW 1199   2.091   1.439   3.284 -0.0709 -0.4483  1.0796
  355SOL    HW1 1200   2.106   1.381   3.210  3.1900  1.0496  0.3660
  355SOL    HW2 1201   2.093   1.527   3.246  1.3312  0.3400  2.8162
  356SOL     OW 1202   1.854   0.189   2.534  1.0470 -0.2668 -0.5413
  356SOL    HW1 1203   1.793   0.138   2.480 -1.0910  0.8966  0.6428
  356SOL    HW2 1204   1.846   0.278   2.501 -1.4425  0.7953  2.3851
  357SOL     OW 1205   1.670   3.886   1.504 -0.2769 -0.2594  0.1990
  357SOL    HW1 1206   1.604   3.905   1.437 -1.9757 -2.1029  1.2759
  357SOL    HW2 1207   1.642   3.936   1.580  0.3752  0.0479  0.2417
  358SOL     OW 1208   4.135   0.950   2.590 -0.0331  0.5976 -0.2383
  358SOL    HW1 1209   4.229   0.967   2.582 -0.1201  1.8850  1.1756
  358SOL    HW2 1210   4.119   0.941   2.684 -1.2648 -0.0783 -0.4863
  359SOL     OW 1211   4.074   2.662   2.782  0.4492  0.2895  0.4876
  359SOL    HW1 1212   4.149   2.703   2.741  1.0101  0.0213  1.2246
  359SOL    HW2 1213   4.096   2.568   2.784 -0.0718  0.1608  0.3592
  360SOL     OW 1214   0.224   2.353   3.058 -0.1034  0.2846 -0.3963
  360SOL    HW1 1215   0.163   2.410   3.012 -1.6183 -1.5265 -0.7778
  360SOL    HW2 1216   0.207   2.368   3.150 -3.5145 -2.3294 -0.3884
  361SOL     OW 1217   1.550   4.743   0.325 -0.0627  0.4201 -0.2880
  361SOL    HW1 1218   1.554   4.692   0.244 -1.1767  1.4067 -0.9991
  361SOL    HW2 1219   1.638   4.739   0.360  0.0931 -1.2555 -0.7661
  362SOL     OW 1220   1.085   2.903   1.797 -0.0020 -0.2287  0.1843
  362SOL    HW1 1221   1.113   2.826   1.847  0.9947 -0.0061 -0.0138
  362SOL    HW2 1222   1.158   2.965   1.806 -0.6660  0.5797  0.0895
  363SOL     OW 1223   4.984   2.005   2.144 -0.2374  0.6930  1.0887
  363SOL    HW1 1224   5.032   2.021   2.225 -1.7082 -0.2993  2.1987
  363SOL    HW2 1225   4.909   1.952   2.170  0.6431 -1.9609 -1.3291
  364SOL     OW 1226   0.047   2.957   3.014 -0.2178 -0.1889  0.0050
  364SOL    HW1 1227   0.050   2.862   3.025 -1.5419 -0.4114 -1.2689
  364SOL    HW2 1228  -0.039   2.982   3.050 -1.1639  0.0992 -2.3150
  365SOL     OW 1229   1.433   3.464   1.041 -0.0678  0.4131  0.2830
  365SOL    HW1 1230   1.486   3.473   1.120  1.4885 -1.7723 -0.4041
  365SOL    HW2 1231   1.463   3.535   0.984  0.9653  0.2060  0.5477
  366SOL     OW 1232   3.000   0.671   1.180 -0.1425  0.5172  0.5252
  366SOL    HW1 1233   3.043   0.719   1.109 -1.5998 -0.1759 -0.8832
  366SOL    HW2 1234   3.013   0.579   1.158  0.2746  0.2603  1.7426
  367SOL     OW 1235   2.734   2.934   2.308  0.7870 -0.0182 -0.1577
  367SOL    HW1 1236   2.716   2.842   2.289  1.1265 -0.1749  0.2616
  367SOL    HW2 1237   2.825   2.946   2.282  1.1187 -0.1196  0.9024
  368SOL     OW 1238   2.432   3.848   4.269 -0.6060 -0.1331 -0.2709
  368SOL    HW1 1239   2.518   3.888   4.258 -1.0507  0.9077 -0.0912
  368SOL    HW2 1240   2.431   3.817   4.359 -0.4321 -0.1222 -0.2656
  369SOL     OW 1241   0.979   4.716   1.796  0.0673 -0.5384  0.2400
  369SOL    HW1 1242   1.007   4.806   1.815  0.2455 -1.0629  2.8924
  369SOL    HW2 1243   0.998   4.704   1.703  1.3415  1.6867  0.1369
  370SOL     OW 1244   0.313   0.040   0.820  0.4989  0.5346  0.2044
  370SOL    HW1 1245   0.356   0.001   0.744  1.0435 -1.5918  1.5061
  370SOL    HW2 1246   0.271  -0.034   0.864 -1.0199  1.9332  1.2083
  371SOL     OW 1247   1.148   3.896   4.422 -0.2747  0.0019 -0.0944
  371SOL    HW1 1248   1.127   3.826   4.483  1.0498 -0.6593 -0.3643
  371SOL    HW2 1249   1.175   3.852   4.342  0.4326  0.8034 -0.3196
  372SOL     OW 1250   3.422   1.809   1.882  0.3731 -0.1613 -0.1646
  372SOL    HW1 1251   3.409   1.768   1.967  1.2495 -0.7267 -0.2850
  372SOL    HW2 1252   3.370   1.889   1.885 -1.0659 -1.0730  0.2224
  373SOL     OW 1253   0.756   1.440   3.235  0.1511  0.1324 -0.5100
  373SOL    HW1 1254   0.776   1.507   3.301 -3.6645  0.1114  0.9646
  373SOL    HW2 1255   0.715   1.488   3.163 -0.3387 -0.3391 -0.5579
  374SOL     OW 1256   3.345   0.447   5.013  0.3921 -0.3111  0.0623
  374SOL    HW1 1257   3.261   0.486   5.036 -0.9142 -2.5446 -0.6260
  374SOL    HW2 1258   3.328   0.353   5.007  2.7507 -0.7686 -0.9304
  375SOL     OW 1259   2.665   2.577   0.307 -0.0307  0.4421 -0.3294
  375SOL    HW1 1260   2.714   2.573   0.224  0.2325 -0.6897 -0.1300
  375SOL    HW2 1261   2.612   2.656   0.299 -0.3156  0.1432 -1.7624
  376SOL     OW 1262   1.122   1.946   0.536  0.3834  0.1622 -0.2791
  376SOL    HW1 1263   1.210   1.980   0.520  0.9414 -1.0567  0.1225
  376SOL    HW2 1264   1.065   2.000   0.481  1.3775  0.9378 -0.5740
  377SOL     OW 1265   1.325   3.202   0.311 -0.5488  0.2855 -0.4188
  377SOL    HW1 1266   1.244   3.160   0.281 -1.0982  1.0751 -0.0601
  377SOL    HW2 1267   1.391   3.176   0.246 -1.3555  0.6060 -1.3851
  378SOL     OW 1268   4.913   3.287   4.759 -0.2373  0.1419 -0.2484
  378SOL    HW1 1269   4.869   3.203   4.771  0.3606 -0.4745 -2.1010
  378SOL    HW2 1270   4.939   3.288   4.667  2.3207  1.1092  0.3978
  379SOL     OW 1271   1.817   4.481   0.659 -0.1485  0.1633 -0.1894
  379SOL    HW1 1272   1.881   4.468   0.729  1.1924 -1.2540 -1.6060
  379SOL    HW2 1273   1.743   4.426   0.684 -0.5118  1.1570  1.0392
  380SOL     OW 1274   1.611   0.220   4.127  0.2761  0.1156  0.1983
  380SOL    HW1 1275   1.671   0.146   4.137 -0.2932 -0.2922  0.6538
  380SOL    HW2 1276   1.546   0.208   4.197 -0.8326  0.0581 -0.8115
  381SOL     OW 1277   4.639   2.988   2.062  0.2073  0.0188 -0.1247
  381SOL    HW1 1278   4.633   2.900   2.098 -0.2796  0.3379  0.6072
  381SOL    HW2 1279   4.664   3.043   2.137 -0.6276  0.6716 -0.3102
  382SOL     OW 1280   0.567   0.759   2.435 -0.3827  0.3833  0.1808
  382SOL    HW1 1281   0.655   0.727   2.457 -1.0197 -0.5215  1.5028
  382SOL    HW2 1282   0.572   0.776   2.341  1.0977 -0.0193  0.1480
  383SOL     OW 1283   4.596   1.950   4.593  0.2678  0.2607  0.3973
  383SOL    HW1 1284   4.685   1.970   4.562  0.7082 -0.2638  1.2888
  383SOL    HW2 1285   4.604   1.866   4.638 -0.8384 -0.1669 -0.1632
  384SOL     OW 1286   2.249   4.541   0.682  0.1874 -0.0568  0.0513
  384SOL    HW1 1287   2.315   4.531   0.613  1.1606 -1.2023  1.0913
  384SOL    HW2 1288   2.262   4.465   0.739 -1.8814 -0.1879  0.4493
  385SOL     OW 1289   0.246   1.977   1.823  0.0449  0.4098 -0.4060
  385SOL    HW1 1290   0.342   1.983   1.823  0.2751 -1.8261 -2.4303
  385SOL    HW2 1291   0.228   1.887   1.850 -1.6310  1.2319  1.5340
  386SOL     OW 1292   2.462   0.120   3.363 -0.2333  0.4519 -0.6418
  386SOL    HW1 1293   2.423   0.082   3.442  1.3846 -0.7149 -0.3449
  386SOL    HW2 1294   2.556   0.121   3.382  0.3456 -1.2046 -3.1055
  387SOL     OW 1295   3.392   1.563   2.033 -0.7579 -0.5712  0.0328
  387SOL    HW1 1296   3.297   1.572   2.021 -0.9621 -0.5828  1.4861
  387SOL    HW2 1297   3.401   1.521   2.118  0.5544 -0.9341 -0.2749
  388SOL     OW 1298   3.824   0.638   0.553  0.0252 -0.1183 -0.2810
  388SOL    HW1 1299   3.871   0.616   0.473  0.2647 -0.4935 -0.0404
  388SOL    HW2 1300   3.840   0.565   0.612  0.3771  0.4335  0.3336
  389SOL     OW 1301   2.192   0.923   1.243 -0.0945  0.0671 -0.5138
  389SOL    HW1 1302   2.153   0.852   1.295  3.2239 -1.3344  0.3092
  389SOL    HW2 1303   2.196   0.888   1.154  2.4610 -1.3514  0.0678
  390SOL     OW 1304   2.583   1.798   1.315 -0.2329 -0.0692 -0.0084
  390SOL    HW1 1305   2.661   1.779   1.365 -0.0418 -0.4758 -0.4543
  390SOL    HW2 1306   2.511   1.786   1.377 -0.1567 -2.5583 -0.3139
  391SOL     OW 1307   4.021   2.200   2.251  0.1443  0.2200 -0.1670
  391SOL    HW1 1308   4.028   2.140   2.177 -0.9223  0.2831 -0.3234
  391SOL    HW2 1309   3.940   2.248   2.236  0.9332  1.6442  0.0048
  392SOL     OW 1310   4.468   0.244   0.438 -0.0993  0.1842 -0.1451
  392SOL    HW1 1311   4.377   0.233   0.467  0.1141 -0.4782  0.2841
  392SOL    HW2 1312   4.478   0.181   0.366 -0.0428  0.4187 -0.3447
  393SOL     OW 1313   1.729   3.197   1.402  0.1049  0.2868 -0.3341
  393SOL    HW1 1314   1.695   3.277   1.362 -1.1339 -0.4257 -0.7747
  393SOL    HW2 1315   1.734   3.134   1.331  2.8084  0.4280 -0.3697
  394SOL     OW 1316   0.502   3.733   3.770  0.3882  0.2593  0.5490
  394SOL    HW1 1317   0.590   3.697   3.777  0.6347  0.7083 -0.1350
  394SOL    HW2 1318   0.516   3.827   3.757 -0.2200  0.4739  1.3762
  395SOL     OW 1319   0.172   2.591   1.595  0.5429 -0.4821  0.2223
  395SOL    HW1 1320   0.135   2.504   1.579  0.3187 -0.6332  1.4412
  395SOL    HW2 1321   0.261   2.587   1.560  0.1593 -0.8260 -0.7515
  396SOL     OW 1322   0.358   0.859   4.289  0.3536 -0.0466 -0.2263
  396SOL    HW1 1323   0.345   0.826   4.200  0.1497 -2.2815  0.5655
  396SOL    HW2 1324   0.341   0.953   4.283  1.4002  0.0551 -2.7406
  397SOL     OW 1325   2.412   3.566   1.841 -0.2063 -0.0647 -0.0607
  397SOL    HW1 1326   2.348   3.518   1.893  0.7537 -1.3468 -0.0023
  397SOL    HW2 1327   2.493   3.514   1.849  0.5464  0.9185 -0.9998
  398SOL     OW 1328   4.011   3.173   3.196  0.4280  0.1986  0.1699
  398SOL    HW1 1329   4.053   3.139   3.275 -0.8648  0.2808  0.9199
  398SOL    HW2 1330   3.940   3.228   3.229 -0.4463 -0.1668 -1.0546
  399SOL     OW 1331   4.233   0.015   4.809  0.1330  0.2940  0.1815
  399SOL    HW1 1332   4.181   0.092   4.832 -0.7034  0.4096 -1.8975
  399SOL    HW2 1333   4.317   0.029   4.853 -0.4980  1.6845  0.9972
  400SOL     OW 1334   4.330   2.121   0.794  0.0266  0.8013 -0.0404
  400SOL    HW1 1335   4.307   2.087   0.707  2.5362  2.0718 -1.3285
  400SOL    HW2 1336   4.295   2.056   0.855  1.5581 -2.2939 -2.1776
  401SOL     OW 1337   2.130   1.346   2.273  0.2698  0.7274  0.0982
  401SOL    HW1 1338   2.192   1.313   2.208 -0.4903 -1.7017  0.5006
  401SOL    HW2 1339   2.175   1.332   2.357 -0.6687 -0.8323  0.3760
  402SOL     OW 1340   1.568   2.043   2.077 -0.3800 -0.0011 -0.4754
  402SOL    HW1 1341   1.578   2.027   1.983 -2.2587  0.0839 -0.7308
  402SOL    HW2 1342   1.519   2.125   2.082 -0.3691 -0.0439  0.5945
  403SOL     OW 1343   2.834   2.099   1.446  0.5652  0.0536 -0.1840
  403SOL    HW1 1344   2.758   2.135   1.400  0.8868 -0.3316 -1.0396
  403SOL    HW2 1345   2.801   2.078   1.534  0.2639  1.9743  0.2006
  404SOL     OW 1346   3.188   1.356   3.974 -0.7983  0.6889 -0.0485
  404SOL    HW1 1347   3.228   1.275   4.007  0.2480  1.4422  0.5714
  404SOL    HW2 1348   3.217   1.362   3.883 -0.8145  0.4129 -0.0728
  405SOL     OW 1349   1.741   0.164   1.843 -0.3835  0.2270  0.1842
  405SOL    HW1 1350   1.698   0.213   1.773 -1.0089  1.2227  1.2383
  405SOL    HW2 1351   1.670   0.129   1.896 -0.0141 -3.1398 -1.3338
  406SOL     OW 1352   0.130   2.891   2.677  0.0942 -0.5014  0.1843
  406SOL    HW1 1353   0.096   2.897   2.766 -0.8511 -2.5312  0.0291
  406SOL    HW2 1354   0.052   2.884   2.622  0.5643 -3.8233 -0.3071
  407SOL     OW 1355   0.125   1.988   4.404  0.6392  0.4873 -0.1384
  407SOL    HW1 1356   0.082   2.061   4.447  1.2809  0.6182  0.2958
  407SOL    HW2 1357   0.205   2.026   4.367  0.4982  0.2073 -0.7552
  408SOL     OW 1358   3.609   0.884   1.552 -0.0040  0.6452 -0.7868
  408SOL    HW1 1359   3.588   0.813   1.492 -1.9451  0.5493 -0.0552
  408SOL    HW2 1360   3.703   0.875   1.567  0.3360  0.0648 -2.9927
  409SOL     OW 1361   2.015   2.130   2.589 -0.3965  0.1412  0.1221
  409SOL    HW1 1362   1.967   2.057   2.549  1.1692 -0.3015 -1.0233
  409SOL    HW2 1363   1.965   2.208   2.566 -0.7668 -0.3414 -0.7398
  410SOL     OW 1364   0.805   4.974   4.763  0.1770  0.1882 -0.1595
  410SOL    HW1 1365   0.738   5.032   4.726 -0.0421  0.2141  0.2722
  410SOL    HW2 1366   0.797   4.893   4.712 -1.8910 -0.7379  1.4802
  411SOL     OW 1367   4.066   2.306   4.436  0.1308  0.5248  0.2822
  411SOL    HW1 1368   4.040   2.217   4.413 -0.2463  0.7209 -0.0777
  411SOL    HW2 1369   4.104   2.299   4.523 -2.6867  0.4592  1.6176
  412SOL     OW 1370   1.369   0.651   1.967  0.3865  0.5727  0.0718
  412SOL    HW1 1371   1.324   0.575   1.930  0.0320  0.7175  0.1960
  412SOL    HW2 1372   1.457   0.646   1.931 -0.1267  1.0794 -1.3200
  413SOL     OW 1373   4.536   1.324   4.787 -0.1913 -0.2088 -0.5426
  413SOL    HW1 1374   4.498   1.406   4.757 -0.8356 -0.4656 -0.4498
  413SOL    HW2 1375   4.489   1.303   4.868 -0.2951 -0.8487 -0.7566
  414SOL     OW 1376   4.344   4.713   2.861  0.3914 -0.1380 -0.1503
  414SOL    HW1 1377   4.348   4.619   2.847  4.2628 -0.0111 -0.9715
  414SOL    HW2 1378   4.320   4.749   2.776 -3.5693 -0.3241  0.7245
  415SOL     OW 1379   4.939   4.717   3.598 -0.0345  0.5318 -0.3172
  415SOL    HW1 1380   4.927   4.687   3.688  0.9226 -0.4698 -0.5046
  415SOL    HW2 1381   4.949   4.812   3.606 -0.0186  0.4621  0.6298
  416SOL     OW 1382   3.489   0.974   2.999 -0.0434 -0.1712  0.2286
  416SOL    HW1 1383   3.435   0.929   2.935  1.1546  0.2425 -1.1398
  416SOL    HW2 1384   3.508   1.059   2.959  0.1754  0.3726  1.4429
  417SOL     OW 1385   4.534   3.315   2.161  0.6472  0.3470 -0.2308
  417SOL    HW1 1386   4.584   3.252   2.213  0.2070  0.6062  0.5216
  417SOL    HW2 1387   4.597   3.383   2.137  1.4391 -0.9637 -2.1107
  418SOL     OW 1388   3.241   4.942   0.952  0.2037 -0.6782 -0.1840
  418SOL    HW1 1389   3.262   4.978   0.865  0.7325 -1.4789 -0.3968
  418SOL    HW2 1390   3.146   4.937   0.953  0.0692  1.0661  0.0027
  419SOL     OW 1391   0.852   1.587   2.539 -0.0760 -0.5661  0.1577
  419SOL    HW1 1392   0.907   1.536   2.480 -1.8275 -0.6866 -1.4547
  419SOL    HW2 1393   0.795   1.523   2.580 -0.3137 -0.2232  0.3679
  420SOL     OW 1394   1.377   2.243   2.040 -0.5167 -0.5638  0.2209
  420SOL    HW1 1395   1.387   2.323   2.093  0.5698 -0.8916  0.5363
  420SOL    HW2 1396   1.421   2.263   1.958 -2.4788  0.0561 -0.7285
  421SOL     OW 1397   4.057   1.939   0.854  0.4150  0.7464 -0.1489
  421SOL    HW1 1398   3.996   1.889   0.799  0.3536  0.9028 -0.2252
  421SOL    HW2 1399   4.005   1.964   0.930  0.1870  1.4361 -0.5141
  422SOL     OW 1400   4.751   0.083   3.283 -0.2202  0.3167 -0.3563
  422SOL    HW1 1401   4.790   0.020   3.343 -1.5624 -0.3906 -0.1887
  422SOL    HW2 1402   4.704   0.144   3.340 -0.1901  0.5821 -0.6113
  423SOL     OW 1403   4.381   2.129   2.525 -0.5462  0.3858 -0.1323
  423SOL    HW1 1404   4.360   2.072   2.451 -0.4417  1.2742 -0.8561
  423SOL    HW2 1405   4.327   2.207   2.513 -0.1714  0.7503  0.4636
  424SOL     OW 1406   3.624   3.315   2.492  0.3255 -0.0328 -0.2034
  424SOL    HW1 1407   3.549   3.341   2.545 -0.9559  0.9014 -2.3263
  424SOL    HW2 1408   3.645   3.226   2.521 -0.2899  0.4279  1.7999
  425SOL     OW 1409   1.640   1.414   3.795 -0.1321 -1.0407 -0.4569
  425SOL    HW1 1410   1.623   1.360   3.872  0.0457  2.7013  2.4843
  425SOL    HW2 1411   1.732   1.438   3.802 -0.6024  1.0071 -0.5626
  426SOL     OW 1412   3.959   1.772   3.679  0.2991  0.2116  0.2696
  426SOL    HW1 1413   4.010   1.824   3.616 -2.3925  0.0364 -2.2719
  426SOL    HW2 1414   3.880   1.825   3.695 -1.2628 -1.8310 -0.2800
  427SOL     OW 1415   4.884   3.551   4.872 -0.1632 -0.1911 -0.0493
  427SOL    HW1 1416   4.965   3.592   4.902 -0.7755  1.4012 -0.4782
  427SOL    HW2 1417   4.911   3.464   4.842  0.9631 -0.6816  2.1589
  428SOL     OW 1418   2.387   0.597   3.396 -0.1682 -1.1904  0.3871
  428SOL    HW1 1419   2.435   0.598   3.479 -0.3863  0.0750  0.5170
  428SOL    HW2 1420   2.296   0.616   3.419  0.0341  0.8735 -0.2507
  429SOL     OW 1421   2.939   4.049   1.216 -0.2632 -0.2145  0.6236
  429SOL    HW1 1422   2.915   4.133   1.255 -0.7886  0.4071 -0.9600
  429SOL    HW2 1423   2.971   4.071   1.129  1.8166 -1.4625  0.9948
  430SOL     OW 1424   0.557   1.387   2.375 -0.5025 -0.3097 -0.0089
  430SOL    HW1 1425   0.464   1.364   2.375 -0.7058  0.2831 -2.5289
  430SOL    HW2 1426   0.558   1.481   2.363  0.4474 -0.3118  0.0190
  431SOL     OW 1427   0.922   2.061   0.303 -0.6093 -0.8847  0.5309
  431SOL    HW1 1428   0.877   1.977   0.305 -0.4664 -0.9856 -0.1812
  431SOL    HW2 1429   0.903   2.097   0.216 -0.2853 -0.3957  0.6557
  432SOL     OW 1430   1.495   2.755   3.990 -0.7127 -0.2795  0.6871
  432SOL    HW1 1431   1.538   2.688   3.938  1.9448  1.1347  0.8538
  432SOL    HW2 1432   1.430   2.794   3.932  1.0117  0.1248 -1.0804
  433SOL     OW 1433   0.776   1.230   1.930 -0.7589  0.7821 -0.2827
  433SOL    HW1 1434   0.698   1.271   1.968 -0.2706  0.9418  0.5784
  433SOL    HW2 1435   0.819   1.187   2.005  0.0879  0.8724 -0.7055
  434SOL     OW 1436   2.678   4.789   0.873  0.0572 -0.3305  0.1593
  434SOL    HW1 1437   2.591   4.808   0.838  0.3161  0.6572  0.0370
  434SOL    HW2 1438   2.679   4.694   0.885 -0.4232 -0.5736 -1.4986
  435SOL     OW 1439   2.141   3.999   3.362 -0.0625  0.2950 -0.1766
  435SOL    HW1 1440   2.132   3.910   3.395  2.1192  0.3485  0.7920
  435SOL    HW2 1441   2.101   4.054   3.429  1.2757  0.1794  0.7664
  436SOL     OW 1442   1.775   4.094   4.343  0.1305  0.2952  0.3885
  436SOL    HW1 1443   1.827   4.027   4.388 -0.3650 -0.2083  0.2304
  436SOL    HW2 1444   1.836   4.136   4.283  0.1062 -1.1358 -0.7096
  437SOL     OW 1445   4.006   2.058   4.713 -0.2305 -0.4766 -0.2573
  437SOL    HW1 1446   4.031   2.062   4.620 -0.8382 -0.6041 -0.4293
  437SOL    HW2 1447   4.007   1.964   4.734 -0.3843 -0.4697 -0.2172
  438SOL     OW 1448   2.334   2.858   3.104 -0.0524 -0.0637  0.1950
  438SOL    HW1 1449   2.418   2.904   3.102  0.1061 -0.3467  0.2737
  438SOL    HW2 1450   2.328   2.823   3.193 -0.8965  1.1291  0.6384
  439SOL     OW 1451   4.851   3.656   0.187 -0.0140 -0.0514  0.1118
  439SOL    HW1 1452   4.848   3.677   0.094  1.1896  0.7126  0.2189
  439SOL    HW2 1453   4.784   3.588   0.199 -1.3100  0.9788 -0.9885
  440SOL     OW 1454   1.749   1.713   3.610  0.0357  0.2785  0.6163
  440SOL    HW1 1455   1.841   1.737   3.598  0.0817  0.6117  1.5315
  440SOL    HW2 1456   1.741   1.627   3.569  0.3434  0.9694 -0.9739
  441SOL     OW 1457   1.224   1.760   4.698  0.1725 -0.2968 -0.0427
  441SOL    HW1 1458   1.254   1.766   4.607  0.7048  0.7422  0.1903
  441SOL    HW2 1459   1.174   1.840   4.712 -1.0437 -1.0788  0.1882
  442SOL     OW 1460   0.832   1.660   1.163 -0.4463  0.5641 -0.3761
  442SOL    HW1 1461   0.814   1.749   1.134  0.1078  1.0858  0.8059
  442SOL    HW2 1462   0.829   1.607   1.084  2.6272  2.1408 -1.7000
  443SOL     OW 1463   4.898   2.593   0.630  0.3557 -0.3168  0.1262
  443SOL    HW1 1464   4.858   2.679   0.617 -1.5209 -0.0255  5.5158
  443SOL    HW2 1465   4.835   2.531   0.593  0.3628  0.4536 -1.2440
  444SOL     OW 1466   0.419   4.897   2.320  0.7391 -0.8445  0.3466
  444SOL    HW1 1467   0.476   4.935   2.387  2.3631 -2.5809  0.0171
  444SOL    HW2 1468   0.391   4.972   2.268 -0.7545  0.6122  2.9984
  445SOL     OW 1469   4.979   1.451   1.447 -0.1823 -0.3369  0.1054
  445SOL    HW1 1470   5.067   1.436   1.410 -0.5428 -0.6446 -0.6392
  445SOL    HW2 1471   4.919   1.428   1.376 -0.8883 -0.7932  0.8484
  446SOL     OW 1472   4.505   3.410   2.763  0.0603 -0.4287 -0.0846
  446SOL    HW1 1473   4.584   3.463   2.755 -0.2321  0.0324  0.0163
  446SOL    HW2 1474   4.493   3.371   2.676 -0.4017  0.6652 -0.5349
  447SOL     OW 1475   3.771   4.805   0.339 -0.7874  0.2225  0.1523
  447SOL    HW1 1476   3.822   4.771   0.412 -0.0153  1.5530  0.2571
  447SOL    HW2 1477   3.832   4.806   0.265 -0.6530  1.7535  0.2595
  448SOL     OW 1478   2.763   0.264   2.103 -0.4603  0.7912  0.2389
  448SOL    HW1 1479   2.673   0.234   2.091  0.2339 -2.0717  1.2072
  448SOL    HW2 1480   2.788   0.299   2.017 -1.1695 -2.4708 -1.4857
  449SOL     OW 1481   0.650   0.962   4.269  0.2374 -0.0080 -0.2131
  449SOL    HW1 1482   0.668   0.886   4.325  0.5178  0.0804 -0.1784
  449SOL    HW2 1483   0.618   1.029   4.330 -0.0597 -0.1142 -0.2507
  450SOL     OW 1484   0.633   4.450   3.735 -0.2903 -0.3706 -0.1534
  450SOL    HW1 1485   0.649   4.467   3.642 -3.7303  0.7555 -0.6901
  450SOL    HW2 1486   0.599   4.533   3.769 -0.9326 -1.3058  1.6087
  451SOL     OW 1487   1.656   2.495   3.266  0.2698 -0.3933  0.3861
  451SOL    HW1 1488   1.705   2.413   3.274  1.5418  0.1885 -0.9286
  451SOL    HW2 1489   1.715   2.554   3.219 -2.0829 -0.0154 -2.4166
  452SOL     OW 1490   4.014   5.013   1.484  0.3070  0.8155 -0.2512
  452SOL    HW1 1491   4.008   4.917   1.488 -0.9867  0.8542 -0.7200
  452SOL    HW2 1492   4.107   5.031   1.475  0.8472 -0.2957  2.1996
  453SOL     OW 1493   4.515   4.229   3.278  0.3897 -0.4333 -0.1438
  453SOL    HW1 1494   4.593   4.282   3.261 -0.1528 -0.0040 -1.4580
  453SOL    HW2 1495   4.520   4.207   3.371  1.4937  0.5266  0.0448
  454SOL     OW 1496   3.160   3.352   2.315  0.5311 -0.1328  0.4676
  454SOL    HW1 1497   3.130   3.442   2.327 -1.1461 -0.1731 -2.5589
  454SOL    HW2 1498   3.255   3.360   2.304  0.3162  1.3918 -0.6161
  455SOL     OW 1499   1.003   3.086   3.019 -0.1817 -0.7983  0.7651
  455SOL    HW1 1500   1.073   3.076   2.955 -0.9884  1.7934 -0.6771
  455SOL    HW2 1501   0.946   3.010   3.006  1.5066 -2.1316  0.9162
  456SOL     OW 1502   1.451   2.159   0.859  0.8400 -0.2370  0.2029
  456SOL    HW1 1503   1.498   2.231   0.816 -0.6910  0.5763 -0.2056
  456SOL    HW2 1504   1.502   2.081   0.838  2.4512  0.6967  0.5014
  457SOL     OW 1505   4.383   1.339   1.768  0.0613  0.0620  0.5241
  457SOL    HW1 1506   4.337   1.384   1.839  0.9248 -1.0798  1.8647
  457SOL    HW2 1507   4.444   1.279   1.813  1.4669  0.1361 -1.1763
  458SOL     OW 1508   4.822   4.710   2.460  0.2555  0.2352  0.2459
  458SOL    HW1 1509   4.795   4.687   2.549 -1.1744  1.3248  0.1239
  458SOL    HW2 1510   4.805   4.804   2.453  0.2851  0.1540 -1.1984
  459SOL     OW 1511   0.003   3.904   4.764  0.4122  0.1615  0.1338
  459SOL    HW1 1512  -0.013   3.992   4.799 -0.6990  0.5536 -1.2570
  459SOL    HW2 1513   0.036   3.854   4.839  0.5914  1.6290  1.0731
  460SOL     OW 1514   4.301   4.325   4.099 -0.8905  0.0264  0.5415
  460SOL    HW1 1515   4.381   4.320   4.045 -0.7416  0.1622  0.7494
  460SOL    HW2 1516   4.257   4.241   4.083 -1.5493  0.6063 -0.8778
  461SOL     OW 1517   3.336   4.897   0.256  0.4783  0.8926  0.4775
  461SOL    HW1 1518   3.403   4.954   0.292  0.2733  0.3640  1.7428
  461SOL    HW2 1519   3.260   4.954   0.242  0.4378  1.0409  1.2614
  462SOL     OW 1520   2.701   1.003   0.278  0.3015  0.3281  0.4551
  462SOL    HW1 1521   2.751   0.997   0.360 -0.0944  1.1098  0.7559
  462SOL    HW2 1522   2.736   1.080   0.234  0.1873  0.1792  0.0958
  463SOL     OW 1523   3.347   4.614   3.177 -0.0817 -0.2422  0.2871
  463SOL    HW1 1524   3.377   4.694   3.220  0.5183  0.7944 -1.8700
  463SOL    HW2 1525   3.259   4.634   3.148  0.5865  0.2618 -1.5500
  464SOL     OW 1526   1.793   3.253   4.239 -0.5259  0.0716  0.1751
  464SOL    HW1 1527   1.870   3.301   4.268 -0.0670  0.1064 -1.0344
  464SOL    HW2 1528   1.817   3.160   4.247 -0.8120  0.0543  0.9398
  465SOL     OW 1529   2.111   0.283   3.475  0.4184 -0.2532  0.8625
  465SOL    HW1 1530   2.054   0.227   3.526 -0.3560  0.8411  1.2275
  465SOL    HW2 1531   2.103   0.250   3.385  1.2450 -1.7353  1.3137
  466SOL     OW 1532   2.598   4.947   3.960  0.2740 -0.6957 -0.3260
  466SOL    HW1 1533   2.571   4.860   3.991 -0.0657 -0.4317  0.1386
  466SOL    HW2 1534   2.692   4.939   3.945  1.1815 -0.0635  3.6939
  467SOL     OW 1535   1.900   1.760   1.048 -0.2436 -0.3531  0.2186
  467SOL    HW1 1536   1.859   1.770   0.962  0.1777 -0.0238  0.0464
  467SOL    HW2 1537   1.930   1.849   1.070  0.8535 -0.6762  0.0881
  468SOL     OW 1538   2.431   1.492   3.517  0.2444  1.0294 -0.0398
  468SOL    HW1 1539   2.479   1.513   3.437 -0.6234 -1.0185 -1.1749
  468SOL    HW2 1540   2.342   1.520   3.500  0.2168  1.2911  0.5212
  469SOL     OW 1541   4.480   4.653   1.413 -0.0805 -0.6223 -0.0381
  469SOL    HW1 1542   4.572   4.680   1.423 -0.4194  0.6962 -0.3445
  469SOL    HW2 1543   4.430   4.727   1.447 -1.0530 -0.7085 -1.2423
  470SOL     OW 1544   2.931   0.725   2.329 -0.1063  0.1921  0.2584
  470SOL    HW1 1545   2.925   0.797   2.266  0.8359  1.4184  1.5015
  470SOL    HW2 1546   2.890   0.651   2.285 -0.9904  1.4472 -1.1224
  471SOL     OW 1547   3.026   4.693   2.200 -0.2228 -0.0547 -0.2037
  471SOL    HW1 1548   3.095   4.677   2.135  0.0260  0.9479 -0.1998
  471SOL    HW2 1549   3.053   4.643   2.276  1.7240  2.0772  0.6009
  472SOL     OW 1550   4.595   0.502   4.596  0.1314 -0.3191  0.7808
  472SOL    HW1 1551   4.555   0.415   4.585  0.0374 -0.3147  1.0601
  472SOL    HW2 1552   4.528   0.553   4.642 -0.7913  0.6490 -1.4962
  473SOL     OW 1553   4.932   1.380   3.266 -0.1539  0.5119 -0.4535
  473SOL    HW1 1554   4.906   1.379   3.174 -0.6021  3.0915 -0.4469
  473SOL    HW2 1555   5.028   1.384   3.263 -0.1495  0.2057 -0.7967
  474SOL     OW 1556   1.242   3.838   2.770  0.0266 -0.7576  0.3332
  474SOL    HW1 1557   1.295   3.912   2.801  0.4517 -1.1743  0.6181
  474SOL    HW2 1558   1.152   3.869   2.777  0.2494  0.7643 -2.1895
  475SOL     OW 1559   3.230   2.245   4.544 -0.0450  0.1065 -0.0008
  475SOL    HW1 1560   3.248   2.261   4.637  1.9535 -0.2919 -0.2813
  475SOL    HW2 1561   3.315   2.222   4.507 -0.7976  0.3358 -1.9587
  476SOL     OW 1562   0.662   3.534   4.077 -0.0556  0.6737  0.5829
  476SOL    HW1 1563   0.645   3.547   3.984 -0.6422  1.1626  0.7521
  476SOL    HW2 1564   0.598   3.470   4.106  1.8381 -1.5691  0.0973
  477SOL     OW 1565   2.903   2.280   2.762 -0.0643 -0.2930  0.2005
  477SOL    HW1 1566   2.903   2.287   2.858  0.1363  0.4389  0.1531
  477SOL    HW2 1567   2.813   2.256   2.740 -0.7919  1.9376  0.4370
  478SOL     OW 1568   0.711   2.017   3.713 -0.1222 -0.3884  0.5315
  478SOL    HW1 1569   0.672   2.035   3.627 -0.4478  1.8386  1.0882
  478SOL    HW2 1570   0.724   1.922   3.713 -1.9572 -0.7295 -1.1882
  479SOL     OW 1571   4.259   2.831   3.422  0.0782  0.2750  0.2034
  479SOL    HW1 1572   4.208   2.908   3.445  2.9348  1.3944  3.7344
  479SOL    HW2 1573   4.226   2.762   3.480 -0.5676 -0.4183 -0.9433
  480SOL     OW 1574   2.866   3.015   4.777  0.4522  0.7392  0.7659
  480SOL    HW1 1575   2.842   3.103   4.808  1.6413  0.7841  1.6306
  480SOL    HW2 1576   2.962   3.015   4.777  0.4771 -0.6885  1.1972
  481SOL     OW 1577   2.483   0.129   4.165  0.3053  0.5165  0.7549
  481SOL    HW1 1578   2.556   0.119   4.104  0.6771  0.9385  1.1170
  481SOL    HW2 1579   2.522   0.111   4.251 -0.6368 -2.0383  0.7322
  482SOL     OW 1580   1.477   1.628   4.825 -0.0748  0.7395 -0.2606
  482SOL    HW1 1581   1.529   1.691   4.875  0.4709 -0.2841  0.4798
  482SOL    HW2 1582   1.410   1.682   4.782 -0.0585  1.7499  0.9176
  483SOL     OW 1583   3.034   0.257   1.778  0.0909 -0.3410  0.0702
  483SOL    HW1 1584   2.989   0.182   1.739 -2.1260  0.3093  1.1983
  483SOL    HW2 1585   2.964   0.315   1.807  1.6612  0.7647  1.9561
  484SOL     OW 1586   1.595   3.241   4.027 -0.4757 -0.1336  0.3833
  484SOL    HW1 1587   1.637   3.237   4.113  0.3574  0.5107  0.0180
  484SOL    HW2 1588   1.542   3.320   4.030 -1.2421 -0.6493  0.6473
  485SOL     OW 1589   2.142   3.128   3.120  0.3685  0.7695 -0.2757
  485SOL    HW1 1590   2.110   3.041   3.095  0.3635  0.5924  0.3277
  485SOL    HW2 1591   2.218   3.143   3.065  0.7982  0.0724  0.1098
  486SOL     OW 1592   2.531   2.388   4.911  0.2887 -0.1970  1.0552
  486SOL    HW1 1593   2.610   2.419   4.956  0.8981 -0.1091 -0.0386
  486SOL    HW2 1594   2.508   2.307   4.956  1.1345 -0.3381  1.2584
  487SOL     OW 1595   4.974   0.258   3.806 -0.5177  0.3705  0.4722
  487SOL    HW1 1596   4.980   0.215   3.892  1.1746 -0.0686  0.1864
  487SOL    HW2 1597   4.884   0.288   3.800 -1.0007 -0.6769  1.8900
  488SOL     OW 1598   3.084   4.055   3.706  0.0778  0.1073 -0.0289
  488SOL    HW1 1599   3.166   4.079   3.661 -0.0100 -1.2857 -1.0012
  488SOL    HW2 1600   3.064   4.131   3.761  0.7186  1.5107 -1.6222
  489SOL     OW 1601   3.690   1.317   4.339 -0.3480  0.5301  0.6105
  489SOL    HW1 1602   3.716   1.408   4.349  0.5065  0.3236  0.4237
  489SOL    HW2 1603   3.622   1.303   4.405  0.7767  0.8348  1.8925
  490SOL     OW 1604   4.121   1.867   3.872  0.1620 -0.1403  0.0507
  490SOL    HW1 1605   4.128   1.794   3.934 -1.4851 -2.5872 -2.4347
  490SOL    HW2 1606   4.051   1.841   3.812  1.4291  2.2296 -2.6626
  491SOL     OW 1607   3.918   4.217   1.264  0.0309 -0.5865  0.1491
  491SOL    HW1 1608   3.942   4.199   1.355  1.6037 -2.3502 -0.5362
  491SOL    HW2 1609   3.864   4.142   1.239  0.2748 -0.5228 -0.5810
  492SOL     OW 1610   0.843   3.791   1.157 -0.3516  0.0340  0.2480
  492SOL    HW1 1611   0.910   3.858   1.149 -0.9318  0.6986  0.8342
  492SOL    HW2 1612   0.817   3.794   1.249 -0.2027 -1.1747  0.3462
  493SOL     OW 1613   1.717   2.086   1.700  0.1992 -0.5601 -0.3804
  493SOL    HW1 1614   1.630   2.046   1.698 -0.7305  1.3635 -0.1968
  493SOL    HW2 1615   1.758   2.050   1.778 -1.3065  0.2142  0.8019
  494SOL     OW 1616   2.494   4.582   1.526  0.0353  0.4556 -0.7543
  494SOL    HW1 1617   2.523   4.491   1.529 -1.6541 -0.0822  1.9929
  494SOL    HW2 1618   2.551   4.627   1.589 -1.5369  0.4568  0.7303
  495SOL     OW 1619   3.072   1.033   2.857 -0.1140 -0.0896 -0.2464
  495SOL    HW1 1620   3.136   0.985   2.910 -1.0425  0.7193  1.7263
  495SOL    HW2 1621   3.099   1.125   2.863 -0.6137  0.0898 -0.6377
  496SOL     OW 1622   4.332   3.492   1.037  0.1324  0.1834 -0.5376
  496SOL    HW1 1623   4.292   3.511   1.122 -1.1398  0.0501 -1.0913
  496SOL    HW2 1624   4.266   3.443   0.989  0.8383  0.2412 -1.6102
  497SOL     OW 1625   3.221   1.400   0.441  0.7782  0.4575  0.7591
  497SOL    HW1 1626   3.289   1.464   0.463  1.1203  0.0126  1.0076
  497SOL    HW2 1627   3.267   1.317   0.438 -0.0361 -0.1076  2.5561
  498SOL     OW 1628   2.611   3.585   3.085  0.5565 -0.2328  0.5303
  498SOL    HW1 1629   2.608   3.499   3.042  0.4005  0.0403 -0.0152
  498SOL    HW2 1630   2.642   3.566   3.173 -0.8310 -1.0384  0.8905
  499SOL     OW 1631   2.242   0.652   3.861  0.2257  0.0271 -0.4400
  499SOL    HW1 1632   2.312   0.599   3.899 -0.0492  0.9165  1.4214
  499SOL    HW2 1633   2.199   0.594   3.799  0.7380 -1.5254  0.5980
  500SOL     OW 1634   0.510   1.333   0.166  0.1661  0.4636  0.0074
  500SOL    HW1 1635   0.419   1.322   0.193 -0.6908  2.1561 -1.9176
  500SOL    HW2 1636   0.535   1.420   0.199  0.4950  0.7342 -0.9180
  501SOL     OW 1637   0.955   1.837   4.503 -0.1538 -1.1509 -0.3803
  501SOL    HW1 1638   0.967   1.848   4.409  0.7488 -0.9504 -0.2496
  501SOL    HW2 1639   0.928   1.923   4.535  4.2713  0.2296  0.2364
  502SOL     OW 1640   3.526   2.385   3.192 -0.4434 -0.1846  0.1972
  502SOL    HW1 1641   3.498   2.454   3.132  1.3409  2.5039  2.2704
  502SOL    HW2 1642   3.504   2.417   3.279  2.0695 -1.3713  1.3687
  503SOL     OW 1643  -0.002   3.650   4.261 -0.4238 -0.1322 -0.1598
  503SOL    HW1 1644   0.093   3.658   4.252 -0.5545  2.7663  0.2435
  503SOL    HW2 1645  -0.015   3.603   4.343  0.5726 -3.0652 -1.5126
  504SOL     OW 1646   3.399   4.289   1.222 -0.8170 -0.3607  0.2294
  504SOL    HW1 1647   3.390   4.350   1.149 -0.4126 -2.6004 -1.8125
  504SOL    HW2 1648   3.368   4.339   1.299  2.3705  3.4570 -0.6139
  505SOL     OW 1649   4.084   1.348   4.942  0.1884 -0.5030 -0.1479
  505SOL    HW1 1650   4.073   1.368   4.850 -0.3394  1.3110  0.2670
  505SOL    HW2 1651   4.063   1.254   4.949 -3.0756 -0.0142 -1.3834
  506SOL     OW 1652   1.666   3.420   2.545  0.5189  0.8737  0.3052
  506SOL    HW1 1653   1.580   3.424   2.586  0.4303 -1.1678  0.4310
  506SOL    HW2 1654   1.657   3.471   2.464 -0.4523  1.6246  0.8653
  507SOL     OW 1655   2.100   3.858   4.919 -0.0751 -0.8416 -0.2246
  507SOL    HW1 1656   2.185   3.904   4.916 -0.3294 -0.1587  1.7200
  507SOL    HW2 1657   2.077   3.857   5.011 -2.8879  0.2657 -0.8325
  508SOL     OW 1658   4.771   4.071   3.210  0.1721 -0.2743  0.9973
  508SOL    HW1 1659   4.793   4.165   3.205 -1.1772  0.0657  1.2208
  508SOL    HW2 1660   4.707   4.064   3.281 -0.6004 -1.1893  0.2432
  509SOL     OW 1661   2.165   2.951   1.476  0.6535 -0.6519 -0.0447
  509SOL    HW1 1662   2.099   2.965   1.407 -0.8799  0.3878  1.5592
  509SOL    HW2 1663   2.160   2.857   1.495 -0.7075 -0.5029  0.3772
  510SOL     OW 1664   0.033   4.703   2.067  0.0901 -0.1135 -0.0648
  510SOL    HW1 1665   0.047   4.612   2.092 -0.4736  0.2337  1.6640
  510SOL    HW2 1666  -0.032   4.735   2.129  0.9929  1.7381 -0.0005
  511SOL     OW 1667   4.798   2.338   4.684  0.4066  0.7104 -0.2242
  511SOL    HW1 1668   4.870   2.399   4.692 -0.1900  1.2153  1.7390
  511SOL    HW2 1669   4.744   2.353   4.762 -1.1187 -0.5513 -0.9670
  512SOL     OW 1670   4.525   1.937   1.567  0.1880 -0.6326  0.0091
  512SOL    HW1 1671   4.619   1.920   1.568 -0.0591 -2.2700 -1.1948
  512SOL    HW2 1672   4.491   1.885   1.639  0.1366 -0.3558  0.1888
  513SOL     OW 1673   2.413   4.341   2.464 -0.8698 -0.3945  0.2078
  513SOL    HW1 1674   2.343   4.401   2.438  0.9562  1.2878 -1.1377
  513SOL    HW2 1675   2.376   4.292   2.537 -3.7787 -0.3043 -1.0473
  514SOL     OW 1676   0.069   1.554   4.787 -0.6435 -0.0455  0.0229
  514SOL    HW1 1677   0.045   1.462   4.805 -1.2576  0.3422  1.3669
  514SOL    HW2 1678   0.138   1.573   4.851 -1.6382  0.8789  0.8710
  515SOL     OW 1679   2.955   4.867   0.994 -0.0178  0.5044  0.3192
  515SOL    HW1 1680   2.930   4.948   1.039 -0.3915 -1.3857  3.9515
  515SOL    HW2 1681   2.873   4.823   0.976  0.2337  0.2758 -0.2917
  516SOL     OW 1682   0.690   4.715   0.041  0.0467 -0.1954  0.4119
  516SOL    HW1 1683   0.715   4.624   0.060  0.7479  0.0415  0.6611
  516SOL    HW2 1684   0.632   4.709  -0.035  1.3256 -0.7228 -0.5557
  517SOL     OW 1685   2.444   4.408   4.947 -0.5080 -0.2248 -0.0710
  517SOL    HW1 1686   2.433   4.316   4.969  1.2728 -0.3944  0.2693
  517SOL    HW2 1687   2.388   4.421   4.870 -0.0370 -1.8478 -0.7333
  518SOL     OW 1688   1.656   0.474   3.271  0.2457 -0.7824 -0.2692
  518SOL    HW1 1689   1.744   0.506   3.286 -0.7110  1.1133  2.0049
  518SOL    HW2 1690   1.633   0.506   3.184  1.1946  0.2245 -0.1682
  519SOL     OW 1691   2.383   0.515   1.447 -0.4286 -0.4016 -0.9035
  519SOL    HW1 1692   2.347   0.519   1.359 -2.6531 -1.8063 -0.1450
  519SOL    HW2 1693   2.378   0.605   1.480 -1.2367 -0.1801 -1.6042
  520SOL     OW 1694   2.013   3.482   4.922  0.4862  0.0520  0.0256
  520SOL    HW1 1695   1.936   3.538   4.913  1.0023  0.8913  0.6544
  520SOL    HW2 1696   2.080   3.540   4.959  1.8512 -0.2687 -1.8048
  521SOL     OW 1697   4.917   1.748   4.666  0.6126  0.0674  0.4517
  521SOL    HW1 1698   4.944   1.839   4.679  0.5061  0.1148  0.3492
  521SOL    HW2 1699   4.994   1.696   4.688  0.5961  0.1704  0.7469
  522SOL     OW 1700   4.645   0.772   0.488  0.5632  0.1393  0.4467
  522SOL    HW1 1701   4.668   0.684   0.458  0.3082  0.2842 -0.1948
  522SOL    HW2 1702   4.562   0.760   0.535  0.9607 -0.0878  1.1138
  523SOL     OW 1703   1.821   3.425   3.196 -0.6690 -0.1546 -0.2315
  523SOL    HW1 1704   1.859   3.340   3.176  0.3346  0.3916 -0.7484
  523SOL    HW2 1705   1.738   3.405   3.240 -0.6050 -1.3864 -0.6339
  524SOL     OW 1706   1.112   4.109   3.348 -0.0496  0.1919  0.0448
  524SOL    HW1 1707   1.117   4.186   3.406  0.1645  1.4139 -1.5246
  524SOL    HW2 1708   1.162   4.042   3.394 -0.0180  1.0649  1.3505
  525SOL     OW 1709   4.046   4.389   0.107 -0.0912  0.0798 -0.0853
  525SOL    HW1 1710   3.951   4.394   0.095 -0.1495  0.7306  0.5358
  525SOL    HW2 1711   4.078   4.343   0.030 -1.0606 -1.5214  0.4239
  526SOL     OW 1712   1.819   0.361   4.508 -0.8679  0.5050  0.7358
  526SOL    HW1 1713   1.870   0.436   4.540  3.0413 -1.3546 -0.5767
  526SOL    HW2 1714   1.816   0.373   4.413 -0.5457 -0.7807  0.5503
  527SOL     OW 1715   1.717   1.369   1.992 -0.1114  0.5994  0.2754
  527SOL    HW1 1716   1.675   1.324   1.919  1.1693 -0.9349  0.4142
  527SOL    HW2 1717   1.645   1.400   2.046 -1.0570 -0.2244 -0.4705
  528SOL     OW 1718   1.725   0.674   4.627  0.4387 -0.0177 -0.9186
  528SOL    HW1 1719   1.796   0.619   4.660  1.1291  0.8617 -0.8790
  528SOL    HW2 1720   1.715   0.742   4.694 -1.6138 -1.0625 -0.0805
  529SOL     OW 1721   3.965   2.268   3.322  0.0891  0.1189  0.0185
  529SOL    HW1 1722   3.991   2.190   3.371 -0.5478  0.0286  0.2236
  529SOL    HW2 1723   3.921   2.235   3.244  0.1687  0.2696 -0.0921
  530SOL     OW 1724   0.435   1.358   3.308 -0.5469  0.0881 -0.1345
  530SOL    HW1 1725   0.509   1.399   3.352  0.0361 -0.1493 -0.8644
  530SOL    HW2 1726   0.452   1.264   3.314 -0.1818  0.0622 -1.2930
  531SOL     OW 1727   2.206   0.146   0.510 -0.4276  0.0982  0.1460
  531SOL    HW1 1728   2.229   0.121   0.600 -0.3725 -2.8324 -0.5836
  531SOL    HW2 1729   2.290   0.168   0.469 -0.2238 -0.3228  0.3306
  532SOL     OW 1730   2.257   0.723   4.618 -0.7280  0.0998 -0.6820
  532SOL    HW1 1731   2.312   0.797   4.643 -1.1795  1.1021 -2.5067
  532SOL    HW2 1732   2.307   0.677   4.551 -1.9521  0.9293 -2.2506
  533SOL     OW 1733   4.140   3.342   2.674  0.3034  0.3270 -0.2977
  533SOL    HW1 1734   4.149   3.332   2.769 -0.5482 -1.5461 -0.3587
  533SOL    HW2 1735   4.148   3.436   2.658  0.4457  0.6716  1.6277
  534SOL     OW 1736   3.549   4.861   3.012  1.1749 -0.5306  0.1452
  534SOL    HW1 1737   3.640   4.862   3.043  1.4439  0.1546 -0.6272
  534SOL    HW2 1738   3.497   4.852   3.091  1.8280  1.4726  0.8579
  535SOL     OW 1739   2.748   4.827   4.940 -0.4668 -0.7587  0.0136
  535SOL    HW1 1740   2.735   4.742   4.981 -0.8903 -0.6196  0.1663
  535SOL    HW2 1741   2.690   4.826   4.864 -2.5174  0.4033  1.4786
  536SOL     OW 1742   4.386   2.558   2.521  0.4375 -0.0599 -0.1333
  536SOL    HW1 1743   4.294   2.548   2.495  0.3655 -1.9905  0.6681
  536SOL    HW2 1744   4.388   2.638   2.573 -0.8354 -0.0609 -0.0552
  537SOL     OW 1745   3.340   3.774   0.555  0.2442 -0.7953 -0.2484
  537SOL    HW1 1746   3.434   3.771   0.576 -0.2181  1.5785  2.8684
  537SOL    HW2 1747   3.336   3.823   0.474  1.6797  0.9859  0.6783
  538SOL     OW 1748   0.495   1.769   0.469 -0.3105 -0.0138 -0.1797
  538SOL    HW1 1749   0.510   1.796   0.559 -0.4612  1.6318 -0.6145
  538SOL    HW2 1750   0.420   1.822   0.440 -0.0838 -0.3054 -1.3538
  539SOL     OW 1751   0.437   3.955   3.105  0.5512 -0.0227  0.0483
  539SOL    HW1 1752   0.526   3.942   3.071  1.0729 -0.8258  1.6361
  539SOL    HW2 1753   0.382   3.900   3.049  1.4081 -1.4271  0.5305
  540SOL     OW 1754   1.196   3.411   4.669 -0.0183  0.1230 -0.1548
  540SOL    HW1 1755   1.162   3.465   4.597  0.2029  0.4151 -0.0431
  540SOL    HW2 1756   1.125   3.407   4.732 -0.1750 -0.0437 -0.3423
  541SOL     OW 1757   0.332   2.990   3.416 -0.0590 -0.7821 -0.0422
  541SOL    HW1 1758   0.399   3.041   3.462  0.1690 -1.7654  0.7637
  541SOL    HW2 1759   0.381   2.934   3.356 -0.3725  0.6704 -1.7316
  542SOL     OW 1760   4.463   2.512   1.189  0.6551  0.0905 -0.1216
  542SOL    HW1 1761   4.555   2.504   1.166  1.5178  2.4758  2.0283
  542SOL    HW2 1762   4.446   2.440   1.249  1.1384 -0.2917 -0.4406
  543SOL     OW 1763   3.792   1.069   4.342 -0.2670 -0.6467  0.4051
  543SOL    HW1 1764   3.887   1.080   4.337 -0.2617 -0.8018  0.1581
  543SOL    HW2 1765   3.758   1.158   4.354 -0.1976 -0.3810 -1.1833
  544SOL     OW 1766   1.923   2.104   1.539  0.9078  0.3535 -0.9299
  544SOL    HW1 1767   1.972   2.150   1.608 -0.4482  2.4678 -1.2959
  544SOL    HW2 1768   1.843   2.075   1.582  0.4577  0.8977 -1.3903
  545SOL     OW 1769   2.801   3.839   3.413 -0.1075 -0.7228 -0.7366
  545SOL    HW1 1770   2.800   3.890   3.332 -0.0443  0.1635 -0.1990
  545SOL    HW2 1771   2.722   3.866   3.459  0.8968  0.3520  0.4227
  546SOL     OW 1772   3.336   0.142   1.852  0.5511 -0.0471  0.0675
  546SOL    HW1 1773   3.430   0.133   1.839  0.5091 -0.0988 -0.2086
  546SOL    HW2 1774   3.306   0.053   1.872  0.5552 -0.0350  0.1290
  547SOL     OW 1775   4.410   3.675   2.818 -0.3204  0.3083  0.2451
  547SOL    HW1 1776   4.438   3.587   2.791  0.2106  0.4816  0.2345
  547SOL    HW2 1777   4.406   3.670   2.913 -3.4722 -0.7034  0.1782
  548SOL     OW 1778   2.536   1.451   4.752  0.1034 -0.2449  0.0620
  548SOL    HW1 1779   2.541   1.356   4.762  0.8482 -0.0206  2.3434
  548SOL    HW2 1780   2.480   1.464   4.675 -0.7342 -2.5012  0.2139
  549SOL     OW 1781   1.371   1.716   0.412  0.0891  0.2259  0.0724
  549SOL    HW1 1782   1.355   1.707   0.505 -0.9891 -1.2094 -0.2130
  549SOL    HW2 1783   1.361   1.627   0.377  1.6096  0.5202 -1.2495
  550SOL     OW 1784   2.054   4.722   0.667 -0.1494 -0.0260 -1.1986
  550SOL    HW1 1785   2.059   4.749   0.576  0.4761 -0.6182 -1.3474
  550SOL    HW2 1786   2.129   4.664   0.679  1.4932  2.2800  0.4671
  551SOL     OW 1787   4.607   2.313   2.008  0.0870  0.5654 -0.0175
  551SOL    HW1 1788   4.534   2.257   2.034  0.2557  0.4779  0.2630
  551SOL    HW2 1789   4.565   2.389   1.968 -0.2298  1.2861  1.6114
  552SOL     OW 1790   4.893   2.758   3.488  0.1163  0.1238  0.4596
  552SOL    HW1 1791   4.881   2.831   3.548  1.1384 -0.1590  1.0315
  552SOL    HW2 1792   4.982   2.769   3.454 -0.1405 -0.2100 -0.3322
  553SOL     OW 1793   2.682   1.634   2.546 -0.1115 -0.7006  0.1477
  553SOL    HW1 1794   2.619   1.682   2.599 -1.9727 -2.7066 -0.1296
  553SOL    HW2 1795   2.650   1.643   2.456  0.6941 -0.7285 -0.1501
  554SOL     OW 1796   3.484   0.648   4.404 -0.2172 -0.2967 -0.7683
  554SOL    HW1 1797   3.574   0.681   4.410 -0.8735  1.5449 -0.6089
  554SOL    HW2 1798   3.481   0.606   4.318  0.3792  1.0002 -1.4566
  555SOL     OW 1799   1.647   2.297   4.284 -0.2560  0.0438 -0.7717
  555SOL    HW1 1800   1.661   2.380   4.329 -0.3959  0.0568 -0.7522
  555SOL    HW2 1801   1.715   2.294   4.216 -0.4695  0.3277 -0.9972
  556SOL     OW 1802   4.534   4.907   1.977  0.0405  0.2049 -0.0718
  556SOL    HW1 1803   4.581   4.900   1.894 -2.6448 -0.2508 -1.6823
  556SOL    HW2 1804   4.468   4.975   1.962 -1.7325 -1.1822  1.0213
  557SOL     OW 1805   1.128   0.579   0.012 -0.1555 -0.4159 -0.9415
  557SOL    HW1 1806   1.158   0.669   0.001 -0.9116 -0.1318 -0.7282
  557SOL    HW2 1807   1.064   0.583   0.083  0.4587 -1.2770 -0.3240
  558SOL     OW 1808   1.218   3.164   4.105  0.4630 -0.2765 -0.2126
  558SOL    HW1 1809   1.216   3.194   4.196  0.3261 -0.3529 -0.1900
  558SOL    HW2 1810   1.171   3.081   4.106  0.0508 -0.0511 -0.4350
  559SOL     OW 1811   0.026   3.528   1.898  0.2327 -0.1409  0.2576
  559SOL    HW1 1812  -0.025   3.468   1.842  1.6913 -0.3516 -0.9035
  559SOL    HW2 1813   0.117   3.503   1.883  0.7647  1.1388  1.2129
  560SOL     OW 1814   0.315   3.061   3.073 -0.4048  0.1958 -0.4534
  560SOL    HW1 1815   0.227   3.035   3.045 -0.4929  0.6284 -0.5848
  560SOL    HW2 1816   0.301   3.140   3.126 -0.1831 -0.2763  0.3163
  561SOL     OW 1817   3.076   4.662   1.862  0.1323  0.5787  0.2183
  561SOL    HW1 1818   3.165   4.683   1.891  0.8411  0.8048 -1.9212
  561SOL    HW2 1819   3.044   4.743   1.822 -0.3248 -0.0062 -0.6339
  562SOL     OW 1820   3.231   2.718   3.442 -0.0777  0.6583  0.1509
  562SOL    HW1 1821   3.212   2.696   3.534 -0.2284 -0.0399 -0.0418
  562SOL    HW2 1822   3.221   2.635   3.395  0.8735  0.8310 -0.3642
  563SOL     OW 1823   2.497   3.819   0.537 -0.3288  0.5193  1.1675
  563SOL    HW1 1824   2.447   3.767   0.599  0.0645  0.9915  1.9022
  563SOL    HW2 1825   2.443   3.896   0.521 -1.3917 -0.5661 -0.7349
  564SOL     OW 1826   1.602   3.892   3.162 -0.4020 -0.7975 -0.9468
  564SOL    HW1 1827   1.507   3.898   3.174 -0.5665  1.9299 -2.6419
  564SOL    HW2 1828   1.613   3.821   3.099 -1.4804 -0.2815 -1.7665
  565SOL     OW 1829   1.456   1.754   2.113 -0.1081 -0.0646  0.2599
  565SOL    HW1 1830   1.369   1.794   2.115  0.1413  0.5067  2.0646
  565SOL    HW2 1831   1.510   1.816   2.064 -0.7649 -0.5965 -1.1815
  566SOL     OW 1832   3.604   0.337   1.199 -0.1003 -0.0594 -0.0969
  566SOL    HW1 1833   3.595   0.264   1.138 -1.4613  1.4650 -1.8469
  566SOL    HW2 1834   3.521   0.339   1.247 -0.7539  1.2944 -1.2353
  567SOL     OW 1835   1.189   0.045   0.465 -0.4853 -0.9656 -0.3866
  567SOL    HW1 1836   1.232   0.126   0.489  0.4264 -1.5075 -0.1454
  567SOL    HW2 1837   1.242   0.009   0.394 -0.8704 -1.3570 -0.4822
  568SOL     OW 1838   3.065   2.881   3.072 -0.3701 -0.1915  0.0974
  568SOL    HW1 1839   3.041   2.821   3.002  4.3735  0.4779 -2.5723
  568SOL    HW2 1840   3.006   2.955   3.062 -0.9250 -0.8600 -2.1719
  569SOL     OW 1841   0.149   0.555   1.280 -0.6894  0.5865 -0.1603
  569SOL    HW1 1842   0.104   0.619   1.335 -0.0685  1.9258 -1.1551
  569SOL    HW2 1843   0.200   0.502   1.341  0.6972  2.6013  0.5075
  570SOL     OW 1844   1.966   0.344   0.597  0.0060 -0.4368 -0.1611
  570SOL    HW1 1845   1.917   0.289   0.658 -1.1416 -0.9963 -1.5231
  570SOL    HW2 1846   2.051   0.357   0.640 -0.9498 -0.2968  1.7949
  571SOL     OW 1847   3.969   3.975   3.535 -0.1117  0.1130 -0.1601
  571SOL    HW1 1848   3.954   4.040   3.467  3.0018 -0.5839 -1.7034
  571SOL    HW2 1849   4.061   3.952   3.526 -0.7941 -3.8095  0.9142
  572SOL     OW 1850   0.241   1.237   1.602 -0.3651 -0.1514 -0.0315
  572SOL    HW1 1851   0.219   1.277   1.518  1.1344 -1.3179 -1.0311
  572SOL    HW2 1852   0.304   1.169   1.581  0.3609 -0.2311  2.0986
  573SOL     OW 1853   0.176   3.813   3.366 -0.0285 -0.0142  0.7108
  573SOL    HW1 1854   0.099   3.756   3.379 -1.7175  1.9074 -0.2944
  573SOL    HW2 1855   0.203   3.796   3.276  0.6420 -0.5581  1.0075
  574SOL     OW 1856   3.970   2.312   0.158  0.8695 -0.1438  0.0757
  574SOL    HW1 1857   3.983   2.219   0.143 -0.2253 -0.3685  0.4469
  574SOL    HW2 1858   4.059   2.350   0.155  1.5276 -1.4394  1.6826
  575SOL     OW 1859   0.867   4.750   4.095  0.2351  0.1917  0.1202
  575SOL    HW1 1860   0.776   4.746   4.123 -0.4266 -3.5241 -1.9282
  575SOL    HW2 1861   0.863   4.774   4.003  1.2035 -0.8527 -0.2283
  576SOL     OW 1862   4.585   2.841   1.454  0.2329 -0.8075  0.1122
  576SOL    HW1 1863   4.498   2.806   1.440  0.1006  0.0306 -1.4000
  576SOL    HW2 1864   4.584   2.872   1.545 -0.5103 -2.1892  0.6020
  577SOL     OW 1865   4.957   4.922   1.913  0.4187 -0.3101 -0.6931
  577SOL    HW1 1866   4.925   4.861   1.848  0.4642 -0.6849 -0.3670
  577SOL    HW2 1867   4.905   4.905   1.991  1.4675 -1.0112 -0.1191
  578SOL     OW 1868   4.482   2.887   3.100  0.2746 -0.0630  0.9427
  578SOL    HW1 1869   4.454   2.937   3.177 -2.5191  0.7206 -0.4388
  578SOL    HW2 1870   4.402   2.844   3.069  2.0322 -3.2041  0.4429
  579SOL     OW 1871   3.968   1.790   4.729 -0.2713  0.1566 -0.6393
  579SOL    HW1 1872   3.946   1.735   4.804  0.4536 -0.1864 -0.6777
  579SOL    HW2 1873   3.944   1.738   4.652  1.6400 -0.6870 -0.7201
  580SOL     OW 1874   3.189   3.149   4.126 -0.3601 -0.1426 -0.5031
  580SOL    HW1 1875   3.256   3.097   4.171  0.0748  1.9902  1.4799
  580SOL    HW2 1876   3.106   3.119   4.164 -0.1219  0.5381  0.5682
  581SOL     OW 1877   1.840   3.658   1.472  0.0986  0.2539 -0.6603
  581SOL    HW1 1878   1.772   3.612   1.521 -1.0396  2.5009  0.0317
  581SOL    HW2 1879   1.816   3.750   1.479  2.2004  0.9833 -2.0257
  582SOL     OW 1880   2.345   3.191   4.824  0.3613  0.0097 -0.3217
  582SOL    HW1 1881   2.372   3.258   4.762 -1.5761  0.7018 -0.4877
  582SOL    HW2 1882   2.344   3.110   4.774  1.8539 -0.0258 -0.3461
  583SOL     OW 1883   0.994   2.462   3.404 -0.3277  0.4989 -0.1817
  583SOL    HW1 1884   1.039   2.477   3.321  0.8510 -0.2353  0.3033
  583SOL    HW2 1885   1.054   2.494   3.471 -0.0101 -1.4574  0.5478
  584SOL     OW 1886   0.191   3.613   0.513 -0.0694 -0.3956  0.2255
  584SOL    HW1 1887   0.200   3.628   0.419 -1.0044  2.0517  0.4748
  584SOL    HW2 1888   0.107   3.568   0.522  0.7330 -2.0667 -0.1797
  585SOL     OW 1889   1.471   0.584   4.774  0.1726  0.4193  0.2213
  585SOL    HW1 1890   1.551   0.573   4.826  0.9985 -0.5013 -1.1742
  585SOL    HW2 1891   1.408   0.525   4.815  0.7885 -0.2462  0.2384
  586SOL     OW 1892   3.771   4.388   0.472  0.4919 -0.6181 -0.2874
  586SOL    HW1 1893   3.723   4.332   0.411 -1.9770  0.4296  0.5815
  586SOL    HW2 1894   3.818   4.326   0.528 -0.4286 -1.7535 -0.7287
  587SOL     OW 1895   0.448   3.868   0.887  0.0668 -0.1504  0.0854
  587SOL    HW1 1896   0.421   3.784   0.849 -2.1261 -0.4025  1.9861
  587SOL    HW2 1897   0.447   3.853   0.981 -1.3185  2.2440  0.5297
  588SOL     OW 1898   1.188   0.727   3.421 -0.3761 -0.2759 -0.3486
  588SOL    HW1 1899   1.237   0.658   3.466 -0.8525 -0.0261  0.5907
  588SOL    HW2 1900   1.100   0.723   3.460 -0.3604  0.9787 -0.1187
  589SOL     OW 1901   3.502   2.323   4.076  0.4518 -0.1103 -0.2230
  589SOL    HW1 1902   3.499   2.272   4.157  1.5889  0.9386  0.5132
  589SOL    HW2 1903   3.595   2.331   4.056  0.2447  0.8439 -0.8670
  590SOL     OW 1904   2.305   2.139   1.975 -0.0506  0.1175  0.1615
  590SOL    HW1 1905   2.242   2.187   2.030  0.9799  2.0109 -0.2379
  590SOL    HW2 1906   2.257   2.121   1.894 -0.6715 -0.1755  0.5811
  591SOL     OW 1907   2.833   2.078   1.056 -0.1829  0.4130 -0.7712
  591SOL    HW1 1908   2.886   2.022   0.998 -1.1825  0.0522 -1.3550
  591SOL    HW2 1909   2.888   2.090   1.133 -0.1922 -1.9277 -0.3317
  592SOL     OW 1910   0.440   4.215   3.171 -0.0620 -0.2748 -0.1651
  592SOL    HW1 1911   0.427   4.248   3.259  1.2718  2.2938 -0.8219
  592SOL    HW2 1912   0.414   4.124   3.175 -1.6631  0.2086  2.4452
  593SOL     OW 1913   3.960   4.658   2.085  0.5684  0.1959  0.8521
  593SOL    HW1 1914   4.055   4.659   2.085  0.6339 -1.2565  2.4596
  593SOL    HW2 1915   3.935   4.687   2.172 -0.5433  1.9040  0.0194
  594SOL     OW 1916   3.933   0.102   1.263 -0.3148 -0.1983 -0.6457
  594SOL    HW1 1917   3.941   0.061   1.349 -0.6740  1.6549  0.3105
  594SOL    HW2 1918   4.012   0.074   1.216 -0.7994 -2.3872 -0.2785
  595SOL     OW 1919   1.706   1.927   3.261 -0.1712 -0.3161  0.2424
  595SOL    HW1 1920   1.759   1.936   3.340 -0.7931 -0.8580  0.7343
  595SOL    HW2 1921   1.681   1.834   3.259 -0.4600 -0.2298 -0.3953
  596SOL     OW 1922   0.516   1.737   4.356  0.0669 -0.3658  0.4227
  596SOL    HW1 1923   0.532   1.648   4.387 -1.7341 -0.4659  1.1902
  596SOL    HW2 1924   0.459   1.725   4.280 -0.5722  0.1389  0.8161
  597SOL     OW 1925   3.513   4.191   2.987  0.2101  0.5231  0.2468
  597SOL    HW1 1926   3.542   4.282   2.998  0.3685  0.6351 -0.9824
  597SOL    HW2 1927   3.589   4.147   2.948  0.4185 -0.3401  1.5493
  598SOL     OW 1928   2.997   4.580   1.214  0.1000  0.3379  0.5692
  598SOL    HW1 1929   3.021   4.593   1.306 -1.0418  2.2997  0.6267
  598SOL    HW2 1930   2.928   4.644   1.198  1.4378  1.2243 -2.1277
  599SOL     OW 1931   4.580   2.636   3.806 -0.4300  0.3682 -0.2528
  599SOL    HW1 1932   4.600   2.672   3.893 -0.5101  1.3745 -0.6373
  599SOL    HW2 1933   4.567   2.713   3.751  1.0696 -0.2068 -1.5030
  600SOL     OW 1934   4.226   3.444   1.691 -0.3512  0.2075 -0.7577
  600SOL    HW1 1935   4.302   3.403   1.651 -0.2735 -1.0310  0.5894
  600SOL    HW2 1936   4.218   3.402   1.776 -0.8009  2.3825  0.3444
  601SOL     OW 1937   2.077   2.141   0.761  0.2584  0.0855  0.5562
  601SOL    HW1 1938   2.029   2.175   0.686 -1.5352 -1.1510  1.0788
  601SOL    HW2 1939   2.161   2.113   0.725  0.1736  1.2073 -0.6126
  602SOL     OW 1940   2.585   2.236   3.552  0.2219  0.5578  0.9908
  602SOL    HW1 1941   2.668   2.253   3.596 -0.0692  0.3323  1.6472
  602SOL    HW2 1942   2.527   2.206   3.622 -0.3974  0.6652  0.5312
  603SOL     OW 1943   1.173   4.482   3.250  0.1356 -0.0338  0.0008
  603SOL    HW1 1944   1.220   4.487   3.167  0.2631 -1.1161 -0.0060
  603SOL    HW2 1945   1.239   4.453   3.313  0.1569  1.2296  0.5980
  604SOL     OW 1946   2.080   0.716   1.423  0.0268 -0.3948 -0.4025
  604SOL    HW1 1947   2.048   0.638   1.470  2.0554 -1.1432 -0.1269
  604SOL    HW2 1948   2.003   0.752   1.380 -1.1332 -2.0826  0.1545
  605SOL     OW 1949   4.405   2.523   2.018  0.1192  0.2790  0.6104
  605SOL    HW1 1950   4.342   2.462   2.057 -0.3521  1.7096  2.1785
  605SOL    HW2 1951   4.429   2.582   2.089  0.0661  2.3414 -0.9945
  606SOL     OW 1952   1.594   4.673   0.789 -0.8738 -1.0859 -0.3743
  606SOL    HW1 1953   1.517   4.623   0.763 -0.3360 -2.3922  0.4098
  606SOL    HW2 1954   1.668   4.619   0.761 -0.2686 -0.7386  0.4937
  607SOL     OW 1955   1.148   1.366   4.670 -0.0369  0.0452 -0.0865
  607SOL    HW1 1956   1.160   1.333   4.581 -0.1186  0.0054 -0.0831
  607SOL    HW2 1957   1.096   1.446   4.659  0.2844  0.2534 -0.1068
  608SOL     OW 1958   2.945   3.238   2.231  0.2971  0.0686 -0.4586
  608SOL    HW1 1959   2.985   3.151   2.229  1.7941  0.7152 -3.1608
  608SOL    HW2 1960   3.009   3.293   2.275  0.0286  0.1457 -0.1539
  609SOL     OW 1961   2.344   2.231   1.230 -0.2571  0.2144 -0.0925
  609SOL    HW1 1962   2.370   2.184   1.151 -1.2422  0.3602 -0.5153
  609SOL    HW2 1963   2.426   2.247   1.276  0.0955 -2.5992  0.4763
  610SOL     OW 1964   4.820   4.133   4.299 -0.0798 -0.3289  0.0263
  610SOL    HW1 1965   4.855   4.078   4.229 -1.2493 -0.3102 -0.6020
  610SOL    HW2 1966   4.894   4.186   4.328  0.0643  0.9043 -2.3813
  611SOL     OW 1967   0.063   2.861   4.321  0.0067 -0.6526 -0.6167
  611SOL    HW1 1968   0.111   2.778   4.311  3.5910  1.1918 -0.1998
  611SOL    HW2 1969   0.071   2.881   4.414 -0.5196  0.3472 -0.7832
  612SOL     OW 1970   1.818   4.556   1.038  0.3752 -0.3496 -0.0466
  612SOL    HW1 1971   1.857   4.576   1.123  1.8268 -0.9483 -0.5491
  612SOL    HW2 1972   1.748   4.493   1.058  1.0336 -0.8742  0.6666
  613SOL     OW 1973   1.061   0.763   3.822 -0.1400 -1.1878 -0.7785
  613SOL    HW1 1974   1.083   0.704   3.894  1.8731 -0.8590 -1.0590
  613SOL    HW2 1975   1.099   0.847   3.847  0.9763 -1.1711 -2.3611
  614SOL     OW 1976   4.816   0.260   4.669 -0.2580  0.0336 -0.5291
  614SOL    HW1 1977   4.802   0.226   4.580 -1.8812  1.9772 -1.0784
  614SOL    HW2 1978   4.870   0.338   4.657  0.3757 -0.2477  0.3448
  615SOL     OW 1979   0.000   4.098   3.911 -0.8253  0.2479  0.1199
  615SOL    HW1 1980  -0.027   4.011   3.883 -0.3394  0.9767 -3.0550
  615SOL    HW2 1981   0.096   4.093   3.917 -0.5266  1.0604 -2.5640
  616SOL     OW 1982   3.462   0.293   2.424 -0.4083 -0.2133 -0.3125
  616SOL    HW1 1983   3.371   0.271   2.407 -0.4543  0.0741 -0.4480
  616SOL    HW2 1984   3.467   0.388   2.409 -0.0320 -0.2698 -0.5579
  617SOL     OW 1985   3.331   1.379   4.645 -0.3852 -0.3124  0.0191
  617SOL    HW1 1986   3.259   1.371   4.708  1.0275 -1.2025  1.6021
  617SOL    HW2 1987   3.316   1.307   4.584 -0.8030 -0.5514  0.3878
  618SOL     OW 1988   0.507   1.886   3.318  0.1373  0.2285  0.6754
  618SOL    HW1 1989   0.428   1.920   3.360 -0.6476  1.6195 -1.7491
  618SOL    HW2 1990   0.579   1.929   3.365 -0.7012  1.7803  0.6190
  619SOL     OW 1991   3.708   1.212   0.262 -0.0782  0.4541  0.0421
  619SOL    HW1 1992   3.765   1.278   0.304 -0.7212  1.0155  0.0594
  619SOL    HW2 1993   3.759   1.131   0.265  0.8550  1.0087 -0.2377
  620SOL     OW 1994   1.470   2.313   1.776  0.6035  0.0397  0.5416
  620SOL    HW1 1995   1.495   2.405   1.768  0.7423 -0.0273  0.1861
  620SOL    HW2 1996   1.438   2.289   1.689 -0.1108 -0.0526  0.8205
  621SOL     OW 1997   0.569   3.428   3.692 -0.2523  0.1408 -0.6423
  621SOL    HW1 1998   0.575   3.350   3.747 -0.2656 -1.0795 -2.2953
  621SOL    HW2 1999   0.658   3.462   3.689 -0.1331 -0.1456 -0.3943
  622SOL     OW 2000   3.817   3.051   4.960 -0.1694 -0.4028 -0.3396
  622SOL    HW1 2001   3.862   3.091   4.885  0.0048 -2.2441 -1.2688
  622SOL    HW2 2002   3.752   3.116   4.986  1.4907  1.3791 -0.3954
  623SOL     OW 2003   4.105   4.748   4.909  0.6212 -0.1820 -0.0467
  623SOL    HW1 2004   4.084   4.836   4.878 -0.4412 -0.1142  0.8021
  623SOL    HW2 2005   4.048   4.690   4.858  0.2007 -0.2234  0.4503
  624SOL     OW 2006   0.675   0.532   2.658 -0.7439 -0.0145 -0.3232
  624SOL    HW1 2007   0.632   0.472   2.719 -1.3031  0.7136  0.0176
  624SOL    HW2 2008   0.751   0.565   2.707  1.0954 -2.3343 -1.3944
  625SOL     OW 2009   0.452   3.755   4.927  0.0450 -0.2760 -0.2462
  625SOL    HW1 2010   0.402   3.675   4.943 -0.8144 -0.2062 -2.3006
  625SOL    HW2 2011   0.524   3.727   4.870  0.9908  0.0755  0.7286
  626SOL     OW 2012   2.746   2.655   2.590 -0.6977  0.0461 -0.2050
  626SOL    HW1 2013   2.815   2.590   2.606  1.1455  1.5080 -1.7965
  626SOL    HW2 2014   2.703   2.625   2.510 -0.4315  0.2828 -0.4414
  627SOL     OW 2015   2.616   1.486   4.183 -0.5075  0.5422 -0.4538
  627SOL    HW1 2016   2.623   1.390   4.188  2.8630  0.7372  0.9942
  627SOL    HW2 2017   2.621   1.505   4.089 -0.2933 -0.6571 -0.7117
  628SOL     OW 2018   3.333   1.445   2.641 -0.2212  0.2337  0.0036
  628SOL    HW1 2019   3.306   1.535   2.624 -2.1725  0.1554  2.1833
  628SOL    HW2 2020   3.299   1.426   2.729 -2.1966 -3.4811 -1.3489
  629SOL     OW 2021   4.015   4.135   1.921  0.0716 -0.2615 -0.2237
  629SOL    HW1 2022   4.054   4.122   2.007 -0.0841 -0.0612 -0.1227
  629SOL    HW2 2023   3.954   4.208   1.933  0.0553 -0.2283 -0.5043
  630SOL     OW 2024   2.983   2.161   2.487  0.4641  0.0541 -0.7512
  630SOL    HW1 2025   3.018   2.075   2.464  0.1708 -0.2178 -0.2090
  630SOL    HW2 2026   2.996   2.168   2.582  2.4950  1.5314 -1.0780
  631SOL     OW 2027   0.848   3.644   2.945 -0.0068  0.4660  0.0070
  631SOL    HW1 2028   0.863   3.618   2.854  1.2996 -0.7765  0.5437
  631SOL    HW2 2029   0.847   3.561   2.993  2.2251  1.2159  1.5072
  632SOL     OW 2030   2.913   2.688   0.521 -0.2528  0.2280  0.4809
  632SOL    HW1 2031   2.913   2.772   0.565  1.0293 -0.0448  1.0528
  632SOL    HW2 2032   2.844   2.637   0.564 -1.4690  1.1599 -0.2913
  633SOL     OW 2033   0.214   4.585   4.198 -0.6049 -0.6641  0.1500
  633SOL    HW1 2034   0.188   4.675   4.177 -1.4855 -0.0919  3.1290
  633SOL    HW2 2035   0.309   4.587   4.199 -0.6134  0.2083 -0.0046
  634SOL     OW 2036   0.611   5.023   0.056 -0.1790  0.6094 -0.5574
  634SOL    HW1 2037   0.601   5.092  -0.009 -2.0435  0.2808 -0.6821
  634SOL    HW2 2038   0.639   4.946   0.006  0.0135  0.7741 -0.7053
  635SOL     OW 2039   1.147   0.404   4.121 -0.2153  0.8918  0.1080
  635SOL    HW1 2040   1.238   0.405   4.092 -0.5516  1.5219 -0.9971
  635SOL    HW2 2041   1.150   0.432   4.213  0.6499  1.5178 -0.1024
  636SOL     OW 2042   4.304   0.882   4.394  0.0165  0.2724 -0.4893
  636SOL    HW1 2043   4.328   0.877   4.301  1.8956 -1.0463  0.0146
  636SOL    HW2 2044   4.325   0.973   4.419  0.5139  0.3389 -1.1142
  637SOL     OW 2045   3.991   2.942   1.488 -0.2944 -0.8595  0.2367
  637SOL    HW1 2046   4.076   2.917   1.524 -0.7037 -1.7842  0.5827
  637SOL    HW2 2047   3.976   3.030   1.522  1.0638 -0.1803 -0.8149
  638SOL     OW 2048   1.461   1.181   2.679 -0.2566 -0.1735 -0.6624
  638SOL    HW1 2049   1.528   1.121   2.647 -0.0725 -0.0009 -0.6043
  638SOL    HW2 2050   1.427   1.139   2.759  1.2529  0.7176  0.5048
  639SOL     OW 2051   4.759   1.907   2.859  0.4599 -0.4346  0.6849
  639SOL    HW1 2052   4.795   1.994   2.877 -1.3140  0.8681 -1.5085
  639SOL    HW2 2053   4.835   1.853   2.838  1.6538  0.3707  2.6592
  640SOL     OW 2054   0.264   2.697   1.145 -0.5019 -0.5074 -0.7089
  640SOL    HW1 2055   0.233   2.624   1.198  2.6185 -0.9363  0.7344
  640SOL    HW2 2056   0.260   2.773   1.204  0.9375 -0.5521 -0.5241
  641SOL     OW 2057   4.852   1.151   0.681 -0.2379 -0.1481  0.2469
  641SOL    HW1 2058   4.775   1.094   0.673  0.4654 -0.8463 -2.9011
  641SOL    HW2 2059   4.824   1.235   0.646  0.4552 -0.5193 -1.3021
  642SOL     OW 2060   2.505   2.702   1.178  0.3202  0.3835 -0.1135
  642SOL    HW1 2061   2.486   2.786   1.220 -1.1732  0.2757 -0.5095
  642SOL    HW2 2062   2.542   2.726   1.093  3.6020  0.6047  1.2443
  643SOL     OW 2063   2.823   4.769   0.639 -0.1177 -0.3278  0.0718
  643SOL    HW1 2064   2.768   4.784   0.716  1.6211 -2.1527  1.7930
  643SOL    HW2 2065   2.908   4.807   0.662  0.0842  0.2480 -1.5041
  644SOL     OW 2066   4.370   3.483   3.103  0.0719  0.5556  0.2028
  644SOL    HW1 2067   4.360   3.547   3.173 -0.7927  0.5253  0.1156
  644SOL    HW2 2068   4.465   3.475   3.091  0.3322 -0.4895  2.3547
  645SOL     OW 2069   4.077   0.843   2.100 -0.7305 -0.3417 -0.6496
  645SOL    HW1 2070   4.125   0.760   2.098 -1.7628 -0.9483 -2.0774
  645SOL    HW2 2071   3.994   0.823   2.056 -0.8605  1.5223 -1.3146
  646SOL     OW 2072   2.635   1.948   5.016  0.3960 -0.0696 -0.2893
  646SOL    HW1 2073   2.708   1.944   5.078  2.4575  0.7299 -2.5160
  646SOL    HW2 2074   2.645   1.870   4.961 -2.0653 -1.3798  0.9263
  647SOL     OW 2075   2.505   2.531   0.866 -0.0990 -0.0898 -0.1715
  647SOL    HW1 2076   2.513   2.520   0.771 -1.0509 -0.4696 -0.2198
  647SOL    HW2 2077   2.588   2.571   0.893 -0.7397  2.2748 -1.4924
  648SOL     OW 2078   2.681   3.178   4.198  0.4661  0.3085  0.7308
  648SOL    HW1 2079   2.700   3.156   4.289  0.1873 -0.3503  0.6389
  648SOL    HW2 2080   2.757   3.228   4.168  0.1114  1.4122  1.6163
  649SOL     OW 2081   3.733   0.438   0.980 -0.5884  0.0796 -0.5213
  649SOL    HW1 2082   3.783   0.423   1.061 -0.4665  1.5125 -0.2950
  649SOL    HW2 2083   3.643   0.415   1.004 -0.5323  0.3629 -0.0025
  650SOL     OW 2084   2.820   1.787   4.784 -0.2450 -0.1882  0.2394
  650SOL    HW1 2085   2.860   1.770   4.699 -0.9536 -0.2460 -0.0902
  650SOL    HW2 2086   2.893   1.809   4.841  0.2391 -0.1474 -0.3859
  651SOL     OW 2087   1.922   5.031   2.937  0.2935 -0.1937 -0.0373
  651SOL    HW1 2088   2.010   5.022   2.901  0.2399  0.9392 -0.5036
  651SOL    HW2 2089   1.925   4.985   3.020  1.6342  0.7069  0.4518
  652SOL     OW 2090   0.687   1.563   1.817  0.1947 -0.3709 -1.1115
  652SOL    HW1 2091   0.693   1.569   1.912 -2.3535  0.0509 -0.8931
  652SOL    HW2 2092   0.684   1.654   1.787  3.9753 -0.3704 -1.9856
  653SOL     OW 2093   5.012   3.252   4.430 -0.3397 -0.3400 -0.1769
  653SOL    HW1 2094   5.074   3.220   4.496  0.7729 -1.0620 -1.5299
  653SOL    HW2 2095   5.004   3.346   4.449 -1.4320 -0.8384  2.0689
  654SOL     OW 2096   2.112   3.641   0.776  0.5170 -0.1015  0.5117
  654SOL    HW1 2097   2.052   3.569   0.793 -2.0252  1.7016 -0.1526
  654SOL    HW2 2098   2.175   3.606   0.713 -2.6299 -0.9505 -2.4729
  655SOL     OW 2099   2.108   3.262   0.089 -0.0850  0.0854 -0.1097
  655SOL    HW1 2100   2.106   3.237  -0.003 -0.5371  0.7887 -0.2929
  655SOL    HW2 2101   2.080   3.353   0.091 -0.6764 -0.0960  0.7799
  656SOL     OW 2102   4.408   4.762   4.571  0.2675  0.2479  0.1828
  656SOL    HW1 2103   4.461   4.684   4.590  0.7961  0.6548  0.4392
  656SOL    HW2 2104   4.402   4.807   4.656  1.3616  1.3194 -0.2795
  657SOL     OW 2105   2.299   4.554   2.810  0.2413 -0.2475 -0.2906
  657SOL    HW1 2106   2.227   4.492   2.815  0.2015 -0.5606 -3.0847
  657SOL    HW2 2107   2.375   4.500   2.788  1.5650  0.0119  3.0146
  658SOL     OW 2108   2.877   0.642   0.525  0.2906 -0.1015 -0.3107
  658SOL    HW1 2109   2.862   0.731   0.494  0.7706  0.3382  0.7079
  658SOL    HW2 2110   2.864   0.588   0.447  1.7969  1.0117 -1.3933
  659SOL     OW 2111   4.033   3.953   1.459  0.2043 -0.0108  0.1132
  659SOL    HW1 2112   4.091   3.892   1.412 -0.8510  0.0902 -1.3757
  659SOL    HW2 2113   4.077   4.038   1.451  2.3779 -0.6498  3.3441
  660SOL     OW 2114   3.716   4.942   1.083 -0.8206 -0.4767 -0.7556
  660SOL    HW1 2115   3.623   4.929   1.098 -0.8561 -0.8102 -1.2235
  660SOL    HW2 2116   3.743   5.006   1.149 -0.9047 -2.0014  0.7934
  661SOL     OW 2117   2.164   0.334   1.518 -0.1884  0.5330  0.1301
  661SOL    HW1 2118   2.197   0.247   1.493 -0.6592 -0.0388  1.4171
  661SOL    HW2 2119   2.173   0.386   1.439  1.9360 -0.1358 -0.1478
  662SOL     OW 2120   4.248   0.599   0.715 -0.0368 -0.1709 -0.8072
  662SOL    HW1 2121   4.228   0.604   0.808 -0.9810  0.6988 -1.0444
  662SOL    HW2 2122   4.178   0.545   0.678 -0.0036 -0.0067 -1.1102
  663SOL     OW 2123   2.421   3.834   2.736  0.5257  0.1042  0.3128
  663SOL    HW1 2124   2.415   3.783   2.818  1.0677 -0.5628 -0.0488
  663SOL    HW2 2125   2.497   3.890   2.748  0.3186  0.3621  0.4484
  664SOL     OW 2126   1.672   4.721   3.359 -0.7022 -0.1693 -0.3428
  664SOL    HW1 2127   1.577   4.732   3.350 -0.4851  0.4307 -2.7403
  664SOL    HW2 2128   1.686   4.627   3.360 -1.3091 -0.2724 -0.7351
  665SOL     OW 2129   3.983   2.276   2.947 -0.0457 -0.2840  0.5199
  665SOL    HW1 2130   4.050   2.322   2.897  2.6160 -2.4811  1.8512
  665SOL    HW2 2131   4.003   2.183   2.937 -1.1611 -0.9306  3.2316
  666SOL     OW 2132   4.981   3.120   0.381  0.2413  0.4492 -0.4405
  666SOL    HW1 2133   4.957   3.030   0.356 -2.7355  0.2460  2.3774
  666SOL    HW2 2134   5.073   3.113   0.406 -0.0387 -2.0306  0.2629
  667SOL     OW 2135   4.065   1.579   0.630 -0.2223  0.0666  0.5734
  667SOL    HW1 2136   4.019   1.519   0.689  1.2473 -1.0066  0.6685
  667SOL    HW2 2137   4.110   1.641   0.689 -1.7182  1.3104  0.4770
  668SOL     OW 2138   3.312   2.441   3.908 -0.1319  0.1394  0.5010
  668SOL    HW1 2139   3.315   2.536   3.915  0.1707  0.3481 -1.7952
  668SOL    HW2 2140   3.379   2.411   3.970  1.4755  1.5810 -0.4303
  669SOL     OW 2141   1.254   4.298   1.696 -0.2775  0.4885 -0.3293
  669SOL    HW1 2142   1.290   4.386   1.701 -1.3296  0.8994  0.4440
  669SOL    HW2 2143   1.248   4.269   1.787  1.5332 -1.0325 -0.6401
  670SOL     OW 2144   2.390   4.721   3.497  0.6154 -0.0504 -0.2095
  670SOL    HW1 2145   2.410   4.633   3.530  0.7906 -0.0977 -0.4373
  670SOL    HW2 2146   2.307   4.712   3.451  0.1549  0.1052  0.5761
  671SOL     OW 2147   4.713   2.583   1.448 -0.3488 -0.3519 -0.1971
  671SOL    HW1 2148   4.771   2.595   1.524  0.1471 -0.4323 -0.5553
  671SOL    HW2 2149   4.644   2.648   1.460 -1.3967 -1.6638  1.3539
  672SOL     OW 2150   2.697   1.423   0.498  0.1938 -0.2388 -0.3323
  672SOL    HW1 2151   2.792   1.412   0.500  0.2563  0.3944  0.4140
  672SOL    HW2 2152   2.663   1.343   0.540  0.5043  0.6099  1.6216
  673SOL     OW 2153   2.333   3.087   1.124  0.4886  0.0874  0.2463
  673SOL    HW1 2154   2.384   3.127   1.194  0.8094  1.9308 -0.9703
  673SOL    HW2 2155   2.397   3.033   1.076  0.1021 -1.8179  1.7564
  674SOL     OW 2156   1.516   1.221   0.817  0.3699  0.7206  0.3351
  674SOL    HW1 2157   1.544   1.312   0.833 -0.0867  1.1745 -1.2848
  674SOL    HW2 2158   1.446   1.228   0.752  0.9686 -0.8487 -0.5363
  675SOL     OW 2159   4.139   3.994   0.817 -0.3477  0.1750 -0.3269
  675SOL    HW1 2160   4.043   3.993   0.823 -0.6352 -0.0071 -3.3872
  675SOL    HW2 2161   4.164   3.902   0.819 -0.2722  0.2040  0.0702
  676SOL     OW 2162   2.080   4.953   1.190  0.3336  0.1619  0.1254
  676SOL    HW1 2163   2.097   4.860   1.200 -1.6134 -0.1996  0.3685
  676SOL    HW2 2164   2.053   4.963   1.098 -1.0031  0.1867  0.4953
  677SOL     OW 2165   1.507   0.916   1.288 -0.4335  0.0105 -0.4535
  677SOL    HW1 2166   1.555   0.833   1.284 -1.3994 -0.6641  0.8307
  677SOL    HW2 2167   1.512   0.952   1.200  0.7487 -0.9933 -0.8196
  678SOL     OW 2168   4.266   0.864   1.798 -0.2598  0.8001  0.2672
  678SOL    HW1 2169   4.230   0.934   1.853 -1.5374 -0.0618  0.5760
  678SOL    HW2 2170   4.349   0.899   1.767 -0.2990  1.9749  1.3803
  679SOL     OW 2171   0.513   2.671   4.770  0.0942  0.6116  0.4611
  679SOL    HW1 2172   0.586   2.666   4.709  1.1397 -0.5017  1.7527
  679SOL    HW2 2173   0.533   2.746   4.825 -0.2396  0.8838  0.2185
  680SOL     OW 2174   0.403   3.084   4.330  0.0521 -0.0926 -0.1335
  680SOL    HW1 2175   0.316   3.125   4.329  0.8339  1.6488 -2.0081
  680SOL    HW2 2176   0.437   3.102   4.418 -1.3597 -0.6070  0.5485
  681SOL     OW 2177   0.242   4.374   3.003  0.4881  0.5143 -0.1997
  681SOL    HW1 2178   0.180   4.376   2.930 -0.4578 -0.6390  0.5295
  681SOL    HW2 2179   0.265   4.282   3.013 -2.6889 -0.1528  3.5383
  682SOL     OW 2180   1.456   4.828   1.508  0.0755  0.0570 -0.9607
  682SOL    HW1 2181   1.396   4.902   1.510 -0.6052 -0.5058  0.5694
  682SOL    HW2 2182   1.443   4.789   1.422  1.4038  2.4282 -2.3628
  683SOL     OW 2183   4.314   4.774   4.047  0.5230  0.2469  0.0958
  683SOL    HW1 2184   4.314   4.682   4.072 -1.5736 -0.7844 -3.1147
  683SOL    HW2 2185   4.291   4.821   4.128 -1.4956 -2.3461  1.1618
  684SOL     OW 2186   3.652   4.085   3.601  0.5925  0.0753 -0.1768
  684SOL    HW1 2187   3.680   4.045   3.519  1.1488  0.3684 -0.1342
  684SOL    HW2 2188   3.706   4.163   3.610 -1.5924  1.7723 -1.0560
  685SOL     OW 2189   2.710   2.572   3.019  0.3883 -0.6669 -0.0226
  685SOL    HW1 2190   2.657   2.591   3.096 -0.6609 -0.7544 -0.7117
  685SOL    HW2 2191   2.721   2.477   3.019  0.4193 -0.6637  0.0308
  686SOL     OW 2192   0.858   2.117   0.670 -1.2555  0.0672  0.1062
  686SOL    HW1 2193   0.838   2.206   0.698 -0.1729  0.8083 -1.3180
  686SOL    HW2 2194   0.912   2.128   0.591  1.1307 -1.7938  1.3259
  687SOL     OW 2195   1.739   2.820   2.806 -0.4595 -0.2975  0.4085
  687SOL    HW1 2196   1.825   2.817   2.848 -0.7810  0.2896  1.1263
  687SOL    HW2 2197   1.678   2.838   2.877 -1.2129 -0.9394 -0.0557
  688SOL     OW 2198   0.561   0.839   0.235 -0.2033 -0.2685  0.1449
  688SOL    HW1 2199   0.579   0.901   0.164 -0.7576  0.0161  0.2442
  688SOL    HW2 2200   0.480   0.872   0.275  0.0767 -0.4562  0.8745
  689SOL     OW 2201   2.270   4.447   1.368  0.1811  0.3363 -0.2589
  689SOL    HW1 2202   2.350   4.485   1.404  0.0231  0.3843  0.0421
  689SOL    HW2 2203   2.232   4.396   1.440  0.5551 -0.6598 -0.7465
  690SOL     OW 2204   0.403   1.293   4.900  0.0461 -0.2049 -0.1377
  690SOL    HW1 2205   0.437   1.290   4.989 -1.1786 -2.2143  0.3362
  690SOL    HW2 2206   0.386   1.201   4.878 -2.0505  0.4305 -1.4653
  691SOL     OW 2207   0.752   2.671   4.665  0.3774  0.2413  0.5083
  691SOL    HW1 2208   0.816   2.637   4.727  1.1993  1.2935  0.2879
  691SOL    HW2 2209   0.787   2.648   4.579  0.2249  0.4146  0.3970
  692SOL     OW 2210   2.661   4.796   3.420 -0.1507  0.2528 -0.9365
  692SOL    HW1 2211   2.709   4.713   3.417  0.2105  0.4211 -0.1083
  692SOL    HW2 2212   2.569   4.770   3.427 -0.0064 -0.0935 -0.2085
  693SOL     OW 2213   4.630   3.438   0.293  0.2799 -0.4041  0.4763
  693SOL    HW1 2214   4.568   3.507   0.317  0.5769 -0.1786  0.6078
  693SOL    HW2 2215   4.607   3.415   0.203  1.4371  1.2942 -0.3159
  694SOL     OW 2216   2.413   1.343   3.882 -0.1879 -0.1866  0.5852
  694SOL    HW1 2217   2.433   1.328   3.975 -0.7687  0.2459  0.7892
  694SOL    HW2 2218   2.429   1.259   3.840  0.5873 -0.2469  0.9918
  695SOL     OW 2219   1.441   0.175   3.278 -0.4305 -0.3918 -0.2098
  695SOL    HW1 2220   1.363   0.123   3.258 -0.4864 -1.7304  2.8060
  695SOL    HW2 2221   1.508   0.142   3.219 -1.2024 -1.9610 -0.2638
  696SOL     OW 2222   1.194   2.096   4.430 -0.2617  0.3391  0.4856
  696SOL    HW1 2223   1.119   2.091   4.372  0.6854 -2.3247 -0.6917
  696SOL    HW2 2224   1.270   2.095   4.372  0.7240  1.4045  1.6824
  697SOL     OW 2225   2.211   2.355   4.152  0.3191 -0.5196 -0.1816
  697SOL    HW1 2226   2.262   2.286   4.194 -1.0254 -1.9821 -0.8396
  697SOL    HW2 2227   2.141   2.375   4.214  0.3362 -0.1869 -0.2640
  698SOL     OW 2228   4.596   2.263   4.312  0.5779  0.6168 -0.5425
  698SOL    HW1 2229   4.584   2.299   4.224  1.6795  0.2036 -0.8809
  698SOL    HW2 2230   4.552   2.178   4.309  0.6830  0.5679 -0.7156
  699SOL     OW 2231   3.202   2.132   3.467 -0.1398  0.4475  0.4152
  699SOL    HW1 2232   3.207   2.036   3.472 -1.1074  0.3756  0.1619
  699SOL    HW2 2233   3.242   2.162   3.549  1.4970 -0.1133 -0.1429
  700SOL     OW 2234   1.366   3.091   4.735  0.0431 -0.0799 -0.5724
  700SOL    HW1 2235   1.390   3.045   4.654  1.2259  0.6066 -0.6341
  700SOL    HW2 2236   1.298   3.152   4.708  1.8758  1.6298 -1.5335
  701SOL     OW 2237   2.055   4.689   3.721  0.5426 -0.2939 -0.2364
  701SOL    HW1 2238   2.053   4.775   3.763  3.0163 -0.5546  0.5423
  701SOL    HW2 2239   1.972   4.648   3.748 -1.1416  2.1071 -1.3836
  702SOL     OW 2240   3.769   4.472   3.442  0.1961  0.2858  0.3170
  702SOL    HW1 2241   3.725   4.555   3.461  1.7639  1.3670 -0.5760
  702SOL    HW2 2242   3.700   4.417   3.405 -0.8135  1.2826  0.6534
  703SOL     OW 2243   1.364   1.180   4.257 -0.1215 -0.0620 -0.1594
  703SOL    HW1 2244   1.402   1.113   4.314  0.1608  0.7706  0.6668
  703SOL    HW2 2245   1.283   1.207   4.302  1.5131  2.6390  1.4437
  704SOL     OW 2246   1.719   3.724   0.121  0.1360 -0.1793 -0.7476
  704SOL    HW1 2247   1.670   3.803   0.099  0.5829  0.1303 -0.6621
  704SOL    HW2 2248   1.653   3.661   0.150 -0.1524  0.4270 -0.0423
  705SOL     OW 2249   1.965   0.085   1.969  0.1309 -0.1619  0.2879
  705SOL    HW1 2250   2.006   0.168   1.994 -0.4333  0.3358 -0.3814
  705SOL    HW2 2251   1.887   0.112   1.920  1.1140 -1.0848 -1.8951
  706SOL     OW 2252   0.868   4.091   1.462 -0.8205 -0.2627  0.7296
  706SOL    HW1 2253   0.834   4.018   1.514  1.1407 -1.6882  0.1149
  706SOL    HW2 2254   0.882   4.161   1.525 -3.3407 -0.1288  1.2382
  707SOL     OW 2255   2.606   0.020   2.304 -0.2766 -0.6168  0.0475
  707SOL    HW1 2256   2.564  -0.003   2.221 -0.7980  1.2529 -0.2607
  707SOL    HW2 2257   2.699   0.003   2.290 -0.5240 -1.7413 -0.3728
  708SOL     OW 2258   1.167   0.856   4.972  0.2250  0.2062 -0.2079
  708SOL    HW1 2259   1.083   0.870   5.015  0.2250  0.1098 -0.1763
  708SOL    HW2 2260   1.186   0.939   4.929  0.4911  0.4982  0.4532
  709SOL     OW 2261   3.772   1.765   1.346 -0.0973  0.1130 -0.0413
  709SOL    HW1 2262   3.840   1.728   1.290  0.3798  0.8265  0.0571
  709SOL    HW2 2263   3.690   1.742   1.302  0.0695 -2.3943  0.8038
  710SOL     OW 2264   1.515   1.555   2.933 -0.0495  0.3074 -0.2737
  710SOL    HW1 2265   1.477   1.578   3.018 -0.4630  1.0617 -0.6475
  710SOL    HW2 2266   1.479   1.621   2.873  0.8610  0.2633 -0.8771
  711SOL     OW 2267   2.796   3.580   4.320  0.4285 -0.4067  0.6203
  711SOL    HW1 2268   2.846   3.507   4.357  1.7837 -0.7816 -1.7263
  711SOL    HW2 2269   2.789   3.559   4.227  1.2047  2.6033 -0.2104
  712SOL     OW 2270   1.500   2.543   0.210 -0.0141 -0.0700  0.5739
  712SOL    HW1 2271   1.415   2.574   0.179 -0.7740 -1.2042  1.4286
  712SOL    HW2 2272   1.560   2.614   0.188 -0.5751 -0.4349 -2.7966
  713SOL     OW 2273   3.244   0.262   0.638 -0.0867 -0.0584  0.6652
  713SOL    HW1 2274   3.285   0.285   0.555 -0.8470  3.0152  1.0320
  713SOL    HW2 2275   3.318   0.243   0.696  0.4863 -1.1792 -0.3884
  714SOL     OW 2276   1.268   0.242   1.815 -0.0601 -0.1361  0.0078
  714SOL    HW1 2277   1.180   0.274   1.834 -0.3365 -1.0896  0.3668
  714SOL    HW2 2278   1.294   0.194   1.893  1.4100  1.3962  0.5397
  715SOL     OW 2279   1.436   3.847   0.287  0.0174 -0.3413 -0.3146
  715SOL    HW1 2280   1.345   3.822   0.308  0.3773 -1.6481 -0.2390
  715SOL    HW2 2281   1.433   3.872   0.195 -0.7632  1.4249  0.1465
  716SOL     OW 2282   0.306   4.873   0.537 -0.2201 -0.2375  0.0497
  716SOL    HW1 2283   0.325   4.856   0.444  1.0499  0.9339  0.0712
  716SOL    HW2 2284   0.383   4.840   0.583  1.3110  3.2369  0.2691
  717SOL     OW 2285   2.810   4.902   4.247 -0.3064  0.2109 -0.4725
  717SOL    HW1 2286   2.885   4.868   4.297 -0.7082 -0.3789 -0.2598
  717SOL    HW2 2287   2.733   4.868   4.293 -0.7847  2.5353  0.5818
  718SOL     OW 2288   2.008   0.181   0.312 -0.2392  0.2105 -0.4671
  718SOL    HW1 2289   1.986   0.274   0.304 -0.1409  0.4721  1.8158
  718SOL    HW2 2290   2.066   0.176   0.388  0.0567 -1.6953 -0.7678
  719SOL     OW 2291   4.706   4.374   0.275  0.3273  0.4990  0.5615
  719SOL    HW1 2292   4.721   4.301   0.335 -1.1334  0.4935  0.9518
  719SOL    HW2 2293   4.618   4.404   0.296 -0.2602  0.4379 -1.6520
  720SOL     OW 2294   0.510   3.699   1.566 -0.0490 -0.7295 -0.2981
  720SOL    HW1 2295   0.473   3.612   1.552  0.4845 -1.4636  2.2874
  720SOL    HW2 2296   0.435   3.756   1.580 -0.3854 -0.8165 -1.6197
  721SOL     OW 2297   3.487   0.547   2.562 -0.2454  0.2643  0.3068
  721SOL    HW1 2298   3.581   0.555   2.576  0.0348  0.2719 -1.3342
  721SOL    HW2 2299   3.455   0.637   2.563  0.0104  0.3742 -0.5133
  722SOL     OW 2300   4.353   4.405   1.400  0.3964 -0.0267 -0.5847
  722SOL    HW1 2301   4.391   4.491   1.415 -1.5733  0.8954 -0.5483
  722SOL    HW2 2302   4.304   4.414   1.318 -0.4382 -0.8677 -0.2055
  723SOL     OW 2303   2.770   0.109   3.157  0.2050 -0.5057  0.3925
  723SOL    HW1 2304   2.751   0.029   3.108 -3.1446  0.7228 -0.5866
  723SOL    HW2 2305   2.748   0.088   3.247 -2.5983 -0.2399 -0.1540
  724SOL     OW 2306   4.536   2.806   4.617 -0.1823  0.2388  0.0936
  724SOL    HW1 2307   4.477   2.731   4.628 -0.0988  0.0716 -0.5640
  724SOL    HW2 2308   4.624   2.768   4.619 -0.0861  0.4968  1.1389
  725SOL     OW 2309   3.368   3.335   3.422 -0.1704 -0.3403 -0.4077
  725SOL    HW1 2310   3.331   3.404   3.477 -0.4781 -0.0480 -0.9738
  725SOL    HW2 2311   3.317   3.257   3.443 -1.6071  0.2022 -1.6716
  726SOL     OW 2312   3.333   2.805   1.583  0.5247 -0.2351 -0.6371
  726SOL    HW1 2313   3.408   2.859   1.603  1.1223 -1.0099 -0.7287
  726SOL    HW2 2314   3.292   2.787   1.667 -0.3362  1.2560 -0.7034
  727SOL     OW 2315   0.235   0.793   0.802  0.2672  0.0595  0.4853
  727SOL    HW1 2316   0.178   0.869   0.793  0.5007  0.1123 -0.8748
  727SOL    HW2 2317   0.221   0.744   0.721  1.4962 -0.3816  0.5210
  728SOL     OW 2318   3.463   2.407   2.170 -0.3080 -0.3635 -0.6379
  728SOL    HW1 2319   3.461   2.358   2.088 -1.6388  1.6794 -1.9392
  728SOL    HW2 2320   3.399   2.363   2.226  1.2424 -2.3030 -0.2951
  729SOL     OW 2321   3.153   3.419   4.080  0.2981  0.3478  0.1895
  729SOL    HW1 2322   3.164   3.328   4.105 -1.8457  0.3336  1.3174
  729SOL    HW2 2323   3.167   3.468   4.162 -0.6590  0.8266  0.0875
  730SOL     OW 2324   4.212   0.344   1.406  0.4020  0.1264  0.2309
  730SOL    HW1 2325   4.198   0.422   1.352 -2.1608 -0.1049  0.4544
  730SOL    HW2 2326   4.294   0.307   1.373  0.7420  1.9119 -1.0903
  731SOL     OW 2327   0.888   4.021   2.032  0.0369 -0.9214  0.0493
  731SOL    HW1 2328   0.814   3.964   2.009  0.6606 -1.6790 -0.1100
  731SOL    HW2 2329   0.913   3.993   2.120  1.4196 -2.0718 -0.6742
  732SOL     OW 2330   2.160   4.600   1.983 -0.4898  0.6993  0.0514
  732SOL    HW1 2331   2.209   4.622   2.062 -0.5885  1.5781 -0.1198
  732SOL    HW2 2332   2.134   4.509   1.995 -1.8101  1.2530  1.7357
  733SOL     OW 2333   2.034   2.969   0.602  0.0912  0.0351 -0.1311
  733SOL    HW1 2334   2.050   3.017   0.521  0.4788 -1.1025 -0.7517
  733SOL    HW2 2335   2.060   3.030   0.672  2.3644  0.1147 -0.9391
  734SOL     OW 2336   3.213   2.741   4.703 -0.7576  0.4007 -0.0911
  734SOL    HW1 2337   3.290   2.701   4.743 -1.3669 -0.3533  0.3521
  734SOL    HW2 2338   3.237   2.750   4.610 -0.3961 -0.4816 -0.0939
  735SOL     OW 2339   2.915   1.463   0.096 -0.1971  0.5255  0.3017
  735SOL    HW1 2340   2.918   1.556   0.070 -1.2172  0.6893  0.6945
  735SOL    HW2 2341   3.003   1.431   0.081  0.8419  2.1476  2.2813
  736SOL     OW 2342   2.768   3.919   4.568 -0.1552 -0.7231  0.2514
  736SOL    HW1 2343   2.736   3.940   4.481  1.5259  1.0111 -0.0125
  736SOL    HW2 2344   2.751   3.825   4.578  0.2694 -1.1159 -2.2214
  737SOL     OW 2345   3.153   0.995   0.291 -0.3690  0.1078 -0.0425
  737SOL    HW1 2346   3.095   1.054   0.340 -0.3625  0.6085 -0.6247
  737SOL    HW2 2347   3.096   0.923   0.264 -0.4676  0.0443  0.3247
  738SOL     OW 2348   3.144   0.375   4.512  1.1840 -0.1569  0.4556
  738SOL    HW1 2349   3.222   0.412   4.553  0.3015 -0.2196  2.3016
  738SOL    HW2 2350   3.071   0.417   4.558  0.1485 -2.0870  0.6622
  739SOL     OW 2351   4.516   2.943   2.791 -1.0749  0.2871  0.1417
  739SOL    HW1 2352   4.509   2.886   2.868 -3.7466 -0.7794 -0.7483
  739SOL    HW2 2353   4.524   3.031   2.826 -1.3342 -0.2558  1.6266
  740SOL     OW 2354   3.286   0.907   1.099 -0.2131  0.0252  0.5637
  740SOL    HW1 2355   3.278   0.942   1.188 -2.1051  1.3520 -0.0769
  740SOL    HW2 2356   3.234   0.966   1.045  0.3986 -1.1091 -1.3549
  741SOL     OW 2357   4.123   3.464   3.291  0.2633  0.1436  0.4080
  741SOL    HW1 2358   4.064   3.443   3.219  1.0389  0.3350 -0.2905
  741SOL    HW2 2359   4.097   3.404   3.361 -1.1347  0.6066  0.3182
  742SOL     OW 2360   1.788   1.440   4.778  0.6762  0.0373 -0.0861
  742SOL    HW1 2361   1.739   1.387   4.840 -1.3871  2.1752  0.2294
  742SOL    HW2 2362   1.872   1.457   4.822  0.5369 -1.1744  0.6809
  743SOL     OW 2363   2.135   3.149   4.082 -0.3037 -0.4163  0.1099
  743SOL    HW1 2364   2.074   3.160   4.155 -0.5338 -2.6351  0.3388
  743SOL    HW2 2365   2.202   3.215   4.096 -2.3671  1.8558  0.0822
  744SOL     OW 2366   2.140   1.928   0.231 -0.2937 -0.2544  0.3637
  744SOL    HW1 2367   2.156   2.017   0.261 -0.5437  0.1945 -0.8117
  744SOL    HW2 2368   2.224   1.900   0.194 -0.9661  0.5868 -1.9589
  745SOL     OW 2369   0.657   3.146   0.587  0.5626  0.0417 -0.4965
  745SOL    HW1 2370   0.739   3.187   0.613  0.0488  0.1304  1.0752
  745SOL    HW2 2371   0.667   3.054   0.611 -0.9107  0.5906  2.7811
  746SOL     OW 2372   3.097   1.811   0.507 -0.1305 -0.2640  0.1073
  746SOL    HW1 2373   3.013   1.841   0.541  0.1523 -0.8360  1.3524
  746SOL    HW2 2374   3.077   1.731   0.459 -0.4159  0.1205 -0.4311
  747SOL     OW 2375   1.820   1.670   2.097 -0.8885 -0.2038  0.5464
  747SOL    HW1 2376   1.752   1.613   2.132 -3.0745  1.5083 -0.6255
  747SOL    HW2 2377   1.842   1.728   2.169 -0.6295 -0.7765  0.9401
  748SOL     OW 2378   4.443   0.635   4.792 -0.1104  0.1765  0.0411
  748SOL    HW1 2379   4.384   0.695   4.745 -1.3225 -1.1152 -0.1578
  748SOL    HW2 2380   4.437   0.662   4.883  1.0577  1.7147 -0.2876
  749SOL     OW 2381   1.993   2.096   4.056  0.2315  0.4526 -0.1158
  749SOL    HW1 2382   2.072   2.096   4.110 -0.8316  0.4111  1.5008
  749SOL    HW2 2383   1.948   2.015   4.081 -1.8569  1.9910  1.3721
  750SOL     OW 2384   2.667   4.861   3.676  0.8461  0.2911 -0.5358
  750SOL    HW1 2385   2.577   4.868   3.707  0.5418 -1.1159 -1.0676
  750SOL    HW2 2386   2.660   4.861   3.581  1.6858  3.3864 -0.7261
  751SOL     OW 2387   4.053   0.978   4.694 -0.3570  0.1969  0.3713
  751SOL    HW1 2388   3.990   0.990   4.765 -0.4140  0.9499  0.1994
  751SOL    HW2 2389   4.118   1.047   4.708  1.2330 -1.4404  1.3887
  752SOL     OW 2390   2.880   3.551   3.758 -0.5315  0.1696  0.4916
  752SOL    HW1 2391   2.876   3.629   3.813 -2.2984  0.0616  0.5822
  752SOL    HW2 2392   2.820   3.570   3.685  2.9199  0.9859 -2.4103
  753SOL     OW 2393   0.343   2.629   2.964  0.2324 -0.4519  0.6941
  753SOL    HW1 2394   0.345   2.708   2.910 -3.1108 -2.0562 -2.2313
  753SOL    HW2 2395   0.280   2.647   3.033 -1.3585 -0.8111 -0.6153
  754SOL     OW 2396   2.052   0.062   4.174  0.0014  0.3934 -0.0408
  754SOL    HW1 2397   2.119   0.098   4.115  1.5171 -0.9321  0.7916
  754SOL    HW2 2398   2.101   0.012   4.239 -1.8280 -1.0027  0.3669
  755SOL     OW 2399   0.288   3.657   0.757  0.1808 -0.0175  0.3920
  755SOL    HW1 2400   0.207   3.631   0.802 -0.0650 -0.0648 -0.0719
  755SOL    HW2 2401   0.270   3.640   0.664  0.3228  0.9907  0.1687
  756SOL     OW 2402   0.373   2.517   1.432  0.6785 -0.2571 -0.2369
  756SOL    HW1 2403   0.328   2.463   1.367  0.8011 -1.0546  0.3232
  756SOL    HW2 2404   0.461   2.528   1.396  0.8926 -1.0986  0.0069
  757SOL     OW 2405   1.870   2.237   0.556 -0.0715 -0.4623  0.2898
  757SOL    HW1 2406   1.891   2.257   0.465  1.0906  0.5145  0.7628
  757SOL    HW2 2407   1.834   2.148   0.552  2.1443 -1.3833 -0.8442
  758SOL     OW 2408   3.497   4.822   2.225  0.0212 -0.4010  0.3785
  758SOL    HW1 2409   3.572   4.803   2.282 -0.1005  1.6265  1.2988
  758SOL    HW2 2410   3.430   4.857   2.283 -0.5751  0.5579 -0.8292
  759SOL     OW 2411   0.172   3.264   4.616  0.2112  0.1730 -0.5726
  759SOL    HW1 2412   0.239   3.314   4.663 -0.9874  0.3165  1.0704
  759SOL    HW2 2413   0.175   3.177   4.656 -0.2437  0.0306 -0.8421
  760SOL     OW 2414   1.329   0.937   1.895 -0.3615 -0.3170  0.3297
  760SOL    HW1 2415   1.266   0.927   1.824 -0.2062  1.3700 -0.0874
  760SOL    HW2 2416   1.362   0.849   1.911 -2.0224 -1.0562 -0.1680
  761SOL     OW 2417   3.927   0.325   4.601 -0.2486  0.2456 -1.0555
  761SOL    HW1 2418   3.901   0.256   4.540 -0.3018 -0.3537 -0.3704
  761SOL    HW2 2419   4.021   0.312   4.614  0.0366  1.1887 -2.0031
  762SOL     OW 2420   1.292   3.070   3.287  0.2093  0.7685 -0.0001
  762SOL    HW1 2421   1.370   3.085   3.233  1.6338 -1.1071  1.3827
  762SOL    HW2 2422   1.224   3.044   3.225  1.3969  0.0437 -1.0483
  763SOL     OW 2423   0.628   4.139   4.123  0.8329  1.0339 -0.1929
  763SOL    HW1 2424   0.653   4.226   4.090 -1.2136  0.8656 -2.5029
  763SOL    HW2 2425   0.583   4.156   4.205  2.6590  1.8586  0.7162
  764SOL     OW 2426   2.318   0.754   1.558 -0.0320 -0.3366  0.5875
  764SOL    HW1 2427   2.234   0.753   1.511  0.7870  1.5682 -1.0086
  764SOL    HW2 2428   2.296   0.722   1.646 -2.2428 -0.7876 -0.0708
  765SOL     OW 2429   3.816   4.405   1.554 -0.3193  0.7908  0.3921
  765SOL    HW1 2430   3.832   4.328   1.608 -0.7040  1.5325  1.5974
  765SOL    HW2 2431   3.748   4.377   1.493  1.5307 -0.6868 -1.1290
  766SOL     OW 2432   0.055   1.603   0.633  0.5491  0.5681 -0.1588
  766SOL    HW1 2433   0.039   1.658   0.710  1.1383 -0.0602  0.4262
  766SOL    HW2 2434  -0.027   1.605   0.584 -0.2771 -0.0638  1.1462
  767SOL     OW 2435   3.843   3.406   3.260  0.2816  0.2809  0.3732
  767SOL    HW1 2436   3.868   3.437   3.348 -1.0677  1.9764  0.2159
  767SOL    HW2 2437   3.772   3.345   3.276 -0.6584  1.3632  0.4438
  768SOL     OW 2438   2.630   4.178   3.744 -0.0866  0.0846 -0.2338
  768SOL    HW1 2439   2.668   4.194   3.830 -0.8859  1.2506 -0.0714
  768SOL    HW2 2440   2.680   4.105   3.708  1.2928  0.6106  0.5678
  769SOL     OW 2441   2.800   0.967   2.463  0.5207 -0.0354 -0.9257
  769SOL    HW1 2442   2.749   0.959   2.543 -0.4893  1.7246 -1.3300
  769SOL    HW2 2443   2.891   0.968   2.492  0.2064 -0.3690  0.0982
  770SOL     OW 2444   4.772   1.739   1.011  0.6112  0.2060 -0.3860
  770SOL    HW1 2445   4.715   1.714   0.938 -1.5597  5.1207 -0.7888
  770SOL    HW2 2446   4.838   1.795   0.972 -0.1113  2.2861  1.1668
  771SOL     OW 2447   3.060   2.959   2.236 -0.2514 -0.0406  0.4165
  771SOL    HW1 2448   3.065   2.876   2.187  0.7487 -0.6409  1.4759
  771SOL    HW2 2449   3.152   2.982   2.252 -0.5340 -0.3387  2.7551
  772SOL     OW 2450   2.688   2.973   1.335  0.7615  0.4485 -0.1705
  772SOL    HW1 2451   2.767   2.942   1.291 -0.2863 -0.5970 -1.4298
  772SOL    HW2 2452   2.681   2.920   1.414  0.3548 -0.8127 -1.0173
  773SOL     OW 2453   3.565   1.543   1.319  0.4692  0.6700 -0.8030
  773SOL    HW1 2454   3.499   1.473   1.309  0.5543  0.5934 -0.8289
  773SOL    HW2 2455   3.629   1.525   1.250 -0.3951  1.7709 -1.9315
  774SOL     OW 2456   1.258   1.239   3.812  0.5181  0.1513  0.2792
  774SOL    HW1 2457   1.181   1.195   3.777  0.8382  0.7696 -1.2585
  774SOL    HW2 2458   1.324   1.170   3.818  0.4182  0.0154 -0.1838
  775SOL     OW 2459   3.938   2.761   1.910 -0.4914 -0.2351 -0.2263
  775SOL    HW1 2460   4.004   2.826   1.884 -0.0629  0.0617  1.4915
  775SOL    HW2 2461   3.958   2.684   1.858  0.2622  0.3578 -0.8337
  776SOL     OW 2462   3.204   3.831   2.684 -0.7537  0.4372  0.3832
  776SOL    HW1 2463   3.174   3.851   2.596 -0.1343  0.0699  0.0858
  776SOL    HW2 2464   3.239   3.914   2.717 -3.1359  1.2076  1.1949
  777SOL     OW 2465   3.003   3.451   2.060 -0.7330 -0.1666  0.0801
  777SOL    HW1 2466   3.084   3.405   2.042  1.4763  2.6455  1.9843
  777SOL    HW2 2467   2.952   3.390   2.114  0.4855 -1.6661 -0.4208
  778SOL     OW 2468   3.467   2.464   1.704  0.2831 -0.0364  0.1502
  778SOL    HW1 2469   3.489   2.513   1.625 -0.2514 -1.6321 -1.0473
  778SOL    HW2 2470   3.522   2.502   1.772  0.3290  1.7809 -0.8384
  779SOL     OW 2471   4.014   1.968   2.543  0.3905 -0.3813  0.4948
  779SOL    HW1 2472   4.067   1.935   2.616  0.2026  1.7004  1.6556
  779SOL    HW2 2473   4.075   1.976   2.470  1.3791  0.5893  1.3838
  780SOL     OW 2474   3.805   2.324   4.041  0.9366  0.8108 -0.7446
  780SOL    HW1 2475   3.848   2.264   4.102  0.5667  1.7374  0.4700
  780SOL    HW2 2476   3.846   2.307   3.956  1.1465 -0.8224 -0.3329
  781SOL     OW 2477   4.529   0.215   4.565 -0.5469  0.4232 -0.0213
  781SOL    HW1 2478   4.538   0.137   4.620  1.3024  0.5283 -0.1360
  781SOL    HW2 2479   4.580   0.194   4.486  1.4054  2.3781  0.6538
  782SOL     OW 2480   2.458   4.479   0.504  0.3326  0.1316  0.5879
  782SOL    HW1 2481   2.553   4.488   0.497  0.2889  0.5844  0.5956
  782SOL    HW2 2482   2.431   4.449   0.417  0.5268 -0.3892  0.7035
  783SOL     OW 2483   4.246   1.284   3.065  0.4492 -0.1231  0.3186
  783SOL    HW1 2484   4.331   1.326   3.056  0.6272 -0.3182  1.0571
  783SOL    HW2 2485   4.203   1.330   3.137  0.5425 -1.0176  0.9577
  784SOL     OW 2486   4.159   0.352   3.146 -0.0691  0.3102  0.0503
  784SOL    HW1 2487   4.095   0.348   3.217 -0.4956 -2.0211 -0.3979
  784SOL    HW2 2488   4.208   0.270   3.153  2.1694  1.5399 -0.3126
  785SOL     OW 2489   1.329   4.117   4.498 -0.2979 -0.1641 -0.7350
  785SOL    HW1 2490   1.254   4.060   4.483 -0.0789  0.1338 -3.3029
  785SOL    HW2 2491   1.368   4.084   4.579 -1.3089 -2.3946 -1.0773
  786SOL     OW 2492   0.451   0.873   1.752 -0.5882 -1.0520  0.0782
  786SOL    HW1 2493   0.515   0.898   1.819 -0.2999  0.7124 -0.7986
  786SOL    HW2 2494   0.478   0.786   1.724  1.0036 -0.6303  0.2257
  787SOL     OW 2495   0.181   4.923   3.806 -0.0039  0.0421 -0.0771
  787SOL    HW1 2496   0.196   4.828   3.802 -0.0223  0.0573 -0.4866
  787SOL    HW2 2497   0.118   4.940   3.736  0.2710  0.4102 -0.2345
  788SOL     OW 2498   0.653   4.406   4.143 -0.3416 -0.1606 -0.2114
  788SOL    HW1 2499   0.640   4.416   4.237 -0.8846 -1.9972 -0.0530
  788SOL    HW2 2500   0.746   4.387   4.133 -0.1938  0.4769 -0.1088
  789SOL     OW 2501   3.361   2.087   1.353 -0.0088 -0.0253 -0.1739
  789SOL    HW1 2502   3.266   2.082   1.345 -0.1048 -1.5089  1.3938
  789SOL    HW2 2503   3.387   2.000   1.383  1.7823  0.5572  0.0575
  790SOL     OW 2504   1.274   3.696   4.645  0.2227 -0.1610  0.1764
  790SOL    HW1 2505   1.356   3.651   4.624 -0.5835 -2.7862  2.0796
  790SOL    HW2 2506   1.247   3.658   4.729 -1.5031  2.7197  1.0541
  791SOL     OW 2507   2.325   2.004   4.556 -0.3025  0.0021 -0.2626
  791SOL    HW1 2508   2.364   1.963   4.634  1.7242 -1.2654 -1.8187
  791SOL    HW2 2509   2.400   2.021   4.498 -1.7482  0.6308 -2.0427
  792SOL     OW 2510   4.275   4.828   2.629  0.3103 -0.7946 -0.2106
  792SOL    HW1 2511   4.253   4.896   2.693  1.5031 -1.1358  0.6052
  792SOL    HW2 2512   4.297   4.877   2.549  0.0984 -0.2773  0.0411
  793SOL     OW 2513   1.230   0.414   0.999 -0.5499  0.7886 -0.0976
  793SOL    HW1 2514   1.200   0.497   0.962  0.0485  0.4396 -1.4026
  793SOL    HW2 2515   1.260   0.437   1.087 -1.7032  1.6867  0.0895
  794SOL     OW 2516   0.528   5.008   4.553  0.0702  0.7541 -0.0568
  794SOL    HW1 2517   0.563   5.094   4.579  0.6030  0.7956 -0.8674
  794SOL    HW2 2518   0.585   4.980   4.481 -0.9447  0.3377 -0.7104
  795SOL     OW 2519   2.243   3.345   0.998  0.6454 -0.2720  0.4710
  795SOL    HW1 2520   2.280   3.265   1.034  0.8337  0.4443  1.9435
  795SOL    HW2 2521   2.247   3.408   1.070  0.7266  1.1398 -0.7198
  796SOL     OW 2522   4.296   3.580   4.602 -0.1258 -0.1829  0.4035
  796SOL    HW1 2523   4.202   3.567   4.589 -0.0117 -0.9297  0.2710
  796SOL    HW2 2524   4.326   3.498   4.640  0.8826 -0.8715 -1.7335
  797SOL     OW 2525   2.053   1.024   2.517 -0.3442  0.0541 -0.0233
  797SOL    HW1 2526   1.994   1.095   2.492 -0.0928  1.1812  2.2788
  797SOL    HW2 2527   2.115   1.064   2.579 -0.0471 -2.0996  1.2002
  798SOL     OW 2528   4.634   3.459   3.161  0.1865  0.0322 -0.3347
  798SOL    HW1 2529   4.622   3.502   3.245 -0.7647  0.2631 -0.5839
  798SOL    HW2 2530   4.644   3.366   3.183  4.0324  0.4544  0.3665
  799SOL     OW 2531   0.343   2.202   3.611  0.1616 -0.1391 -0.2308
  799SOL    HW1 2532   0.329   2.185   3.518 -0.3670 -2.5583  0.2322
  799SOL    HW2 2533   0.265   2.251   3.638 -1.6152 -2.7270 -0.3185
  800SOL     OW 2534   4.068   1.398   4.110 -0.2945 -0.1344  0.4505
  800SOL    HW1 2535   4.043   1.326   4.169 -0.2738 -0.8611 -0.4064
  800SOL    HW2 2536   4.156   1.374   4.079  0.1429  0.7847  0.9484
  801SOL     OW 2537   2.381   2.579   4.756 -0.1381  0.1839  0.3472
  801SOL    HW1 2538   2.362   2.561   4.664  1.6356 -0.4247  0.0565
  801SOL    HW2 2539   2.408   2.495   4.792  3.4769  1.1104  0.2289
  802SOL     OW 2540   4.035   4.408   3.524 -0.0755 -0.7764 -0.2717
  802SOL    HW1 2541   3.953   4.449   3.499 -0.1802 -2.2297 -2.5785
  802SOL    HW2 2542   4.062   4.455   3.603 -1.5901  1.7293 -1.1192
  803SOL     OW 2543   2.842   0.296   2.510 -0.2360  0.0634  0.2746
  803SOL    HW1 2544   2.899   0.371   2.530 -0.8413  0.3820  0.8366
  803SOL    HW2 2545   2.760   0.315   2.556 -0.4558 -0.8678  0.2863
  804SOL     OW 2546   1.105   4.429   4.654 -0.7972  0.7288  0.0930
  804SOL    HW1 2547   1.032   4.371   4.674 -0.3423 -0.3338 -1.1697
  804SOL    HW2 2548   1.182   4.372   4.654 -0.2991  1.3657 -0.9009
  805SOL     OW 2549   0.770   1.193   2.245 -0.1730  0.2214  0.0566
  805SOL    HW1 2550   0.720   1.257   2.296 -1.7836  0.3555 -1.5938
  805SOL    HW2 2551   0.716   1.115   2.244  0.4552 -0.2209 -0.3302
  806SOL     OW 2552   1.754   0.643   3.835 -0.2082  0.5527 -0.1556
  806SOL    HW1 2553   1.833   0.589   3.828 -1.2790 -1.1150  0.1945
  806SOL    HW2 2554   1.685   0.582   3.862 -1.7139  1.8794 -0.8388
  807SOL     OW 2555   3.145   2.118   4.931  0.7294 -0.1129 -0.1488
  807SOL    HW1 2556   3.091   2.198   4.936  1.5605  0.3990  1.2735
  807SOL    HW2 2557   3.175   2.104   5.021 -0.6137 -2.9143 -0.0133
  808SOL     OW 2558   3.675   0.628   3.935 -0.3127 -0.0724  0.2085
  808SOL    HW1 2559   3.760   0.609   3.897  0.5568 -0.7657  2.3202
  808SOL    HW2 2560   3.622   0.661   3.863  1.9025  0.9143 -1.0549
  809SOL     OW 2561   0.860   3.016   3.775  0.5830 -0.3358  0.2174
  809SOL    HW1 2562   0.898   3.102   3.754 -1.6363  0.1377 -2.5406
  809SOL    HW2 2563   0.935   2.959   3.790  2.1395  1.8988  1.5573
  810SOL     OW 2564   2.223   4.235   0.022  0.2239 -0.2744  0.3170
  810SOL    HW1 2565   2.234   4.144   0.049  0.6022  0.2175  1.9661
  810SOL    HW2 2566   2.136   4.238  -0.018  1.0418 -1.7510 -1.7577
  811SOL     OW 2567   1.513   2.097   2.575  0.1215 -0.1116  0.6581
  811SOL    HW1 2568   1.592   2.081   2.523 -0.6126  0.7439 -0.7527
  811SOL    HW2 2569   1.447   2.041   2.535 -0.3189  0.1389  1.0346
  812SOL     OW 2570   0.496   3.168   2.891  0.0101 -1.2672 -0.8277
  812SOL    HW1 2571   0.423   3.127   2.937 -0.7816  0.7082 -0.2415
  812SOL    HW2 2572   0.457   3.243   2.846  1.8694  0.8151  0.8038
  813SOL     OW 2573   2.796   1.397   3.224 -0.5782 -0.6026  0.1490
  813SOL    HW1 2574   2.707   1.390   3.258 -0.9140 -1.8300 -0.8736
  813SOL    HW2 2575   2.797   1.337   3.149  0.1787  1.8121 -1.8781
  814SOL     OW 2576   2.278   1.192   1.440 -0.0175  0.3473 -0.2036
  814SOL    HW1 2577   2.187   1.214   1.461 -0.6051 -1.9894 -0.0668
  814SOL    HW2 2578   2.315   1.160   1.522  0.6433  0.3963 -0.4759
  815SOL     OW 2579   3.918   4.056   0.234 -0.6599  0.7452 -0.5773
  815SOL    HW1 2580   3.965   3.988   0.283  1.6281  0.4379 -2.9924
  815SOL    HW2 2581   3.860   4.008   0.175 -1.1163  1.0089 -0.3522
  816SOL     OW 2582   2.627   0.912   2.655  0.3607 -0.1245  0.0515
  816SOL    HW1 2583   2.563   0.938   2.588  0.8879 -0.4764 -0.6133
  816SOL    HW2 2584   2.576   0.866   2.721 -0.1921  0.3388 -0.0497
  817SOL     OW 2585   1.918   1.374   0.917  0.3464 -0.6847 -0.3219
  817SOL    HW1 2586   1.985   1.310   0.938  0.6979 -1.3380 -3.0283
  817SOL    HW2 2587   1.894   1.412   1.001  1.5319 -2.9488  1.1501
  818SOL     OW 2588   2.805   3.216   3.487  0.0740  0.3228 -0.9039
  818SOL    HW1 2589   2.801   3.237   3.394  0.8805 -0.3559 -1.0938
  818SOL    HW2 2590   2.886   3.257   3.517  0.1415 -0.0077 -0.6351
  819SOL     OW 2591   4.631   2.560   4.359 -0.3268  0.0968  0.4029
  819SOL    HW1 2592   4.622   2.466   4.372 -0.3215  0.0110 -0.1595
  819SOL    HW2 2593   4.559   2.582   4.300 -0.1107  0.3808  0.2435
  820SOL     OW 2594   0.158   4.428   0.941 -0.7494 -0.0151  0.2441
  820SOL    HW1 2595   0.230   4.390   0.991  0.3717  0.8248 -0.6686
  820SOL    HW2 2596   0.089   4.444   1.006 -0.0885 -0.7477  1.1541
  821SOL     OW 2597   1.581   2.797   0.098 -0.9110 -0.6964 -0.5780
  821SOL    HW1 2598   1.613   2.762   0.016  1.6913  0.3674 -0.1107
  821SOL    HW2 2599   1.560   2.889   0.079  1.2525  0.0322  0.1961
  822SOL     OW 2600   0.653   0.568   0.095 -0.3751  0.5117 -0.1132
  822SOL    HW1 2601   0.616   0.554   0.182  1.2647  2.0055  0.8771
  822SOL    HW2 2602   0.608   0.645   0.061 -2.1070 -0.9398 -1.2962
  823SOL     OW 2603   2.112   3.156   0.781  0.0228 -0.1198  0.6291
  823SOL    HW1 2604   2.085   3.226   0.841 -0.0011  0.1943  0.2575
  823SOL    HW2 2605   2.121   3.200   0.696  0.3392 -0.5035  0.4648
  824SOL     OW 2606   4.829   1.292   4.983  0.3303 -0.0537  0.1884
  824SOL    HW1 2607   4.884   1.355   5.029 -0.2736  0.5397  0.1189
  824SOL    HW2 2608   4.740   1.317   5.006  0.0892 -1.0565  0.3686
  825SOL     OW 2609   4.384   4.129   4.403  0.5292 -0.0892  0.0502
  825SOL    HW1 2610   4.471   4.161   4.428  0.5904  1.7435 -2.0914
  825SOL    HW2 2611   4.400   4.044   4.363  0.9567 -0.9664  1.9846
  826SOL     OW 2612   1.907   1.879   4.388 -0.1383 -0.6875 -0.1165
  826SOL    HW1 2613   1.940   1.941   4.453 -1.4288  0.9394 -0.9146
  826SOL    HW2 2614   1.841   1.828   4.435 -0.0013 -0.5533  0.2251
  827SOL     OW 2615   2.886   2.258   0.185 -0.0334 -0.0678  0.2115
  827SOL    HW1 2616   2.887   2.274   0.091 -0.2092 -3.1504 -0.3982
  827SOL    HW2 2617   2.965   2.302   0.217  0.9405 -0.3348 -1.6517
  828SOL     OW 2618   2.798   2.473   0.871  0.1007 -0.2727 -0.0270
  828SOL    HW1 2619   2.885   2.436   0.856  1.0544 -0.9036  5.0801
  828SOL    HW2 2620   2.814   2.560   0.907 -1.5980  0.6639 -1.3886
  829SOL     OW 2621   1.287   0.081   1.562  0.5215 -0.5203  0.0307
  829SOL    HW1 2622   1.269   0.115   1.650 -1.0281  0.9849 -0.8040
  829SOL    HW2 2623   1.363   0.132   1.532  1.3979 -1.4223  0.6788
  830SOL     OW 2624   2.765   1.101   1.380  0.1599  0.4266 -0.4013
  830SOL    HW1 2625   2.699   1.169   1.370 -0.9026 -0.3098  1.2321
  830SOL    HW2 2626   2.725   1.023   1.340  0.5113  0.2653 -0.4402
  831SOL     OW 2627   4.492   1.412   0.830  0.2723 -0.2551  0.2342
  831SOL    HW1 2628   4.469   1.329   0.788  1.5416 -0.6534  0.2681
  831SOL    HW2 2629   4.418   1.431   0.887 -1.8908  0.7206 -2.6621
  832SOL     OW 2630   4.521   3.855   0.126 -0.7523 -0.2926  0.9530
  832SOL    HW1 2631   4.577   3.930   0.104 -1.9533  0.4474  0.2622
  832SOL    HW2 2632   4.531   3.795   0.052 -0.3875 -0.4682  1.1399
  833SOL     OW 2633   2.069   2.899   2.974  0.5570 -0.2203  0.9030
  833SOL    HW1 2634   2.162   2.876   2.969  0.5410 -0.3430  1.1664
  833SOL    HW2 2635   2.033   2.839   3.039  0.2838 -0.1998  0.7714
  834SOL     OW 2636   3.684   3.073   1.272 -0.4060 -0.2091 -0.5612
  834SOL    HW1 2637   3.637   3.021   1.207  0.4417 -0.9242 -0.6112
  834SOL    HW2 2638   3.729   3.009   1.327  1.8425  0.4723 -1.4938
  835SOL     OW 2639   4.519   4.082   2.568 -0.3220 -0.0104  0.0849
  835SOL    HW1 2640   4.557   4.028   2.498 -0.0899  0.4607 -0.1541
  835SOL    HW2 2641   4.441   4.033   2.596  1.0443 -1.5644  1.3578
  836SOL     OW 2642   4.726   4.009   3.765  0.2676  0.4718 -0.5974
  836SOL    HW1 2643   4.638   3.997   3.729 -0.3070  0.6435  0.7018
  836SOL    HW2 2644   4.782   4.020   3.688 -0.8118  0.1623 -1.4497
  837SOL     OW 2645   1.395   1.482   4.342 -0.4835 -0.2977  1.0305
  837SOL    HW1 2646   1.466   1.443   4.393 -0.7538 -0.6833  1.1171
  837SOL    HW2 2647   1.384   1.423   4.267 -0.1998  0.1761  0.6140
  838SOL     OW 2648   1.008   0.389   3.892 -0.0915 -0.3553  0.3303
  838SOL    HW1 2649   1.077   0.397   3.826 -1.4973  2.0126 -0.9853
  838SOL    HW2 2650   1.052   0.405   3.975  0.8828  1.7738 -0.5328
  839SOL     OW 2651   4.846   1.582   0.513  0.6882  0.1808  0.7087
  839SOL    HW1 2652   4.792   1.543   0.581 -1.3490  0.5674 -0.5850
  839SOL    HW2 2653   4.790   1.649   0.473  1.7127 -0.1577 -1.4518
  840SOL     OW 2654   2.954   0.568   2.539 -0.6092 -0.1253 -0.4916
  840SOL    HW1 2655   2.886   0.581   2.604 -1.7636 -1.1689 -1.4459
  840SOL    HW2 2656   2.927   0.622   2.465  0.0334  0.0674 -0.5983
  841SOL     OW 2657   1.894   0.752   0.294  0.2655 -0.3179 -0.7800
  841SOL    HW1 2658   1.863   0.832   0.336  1.0592 -0.0428 -0.7180
  841SOL    HW2 2659   1.987   0.747   0.316  0.3349 -0.9914 -1.2023
  842SOL     OW 2660   0.426   4.812   2.690 -0.4996 -0.0083 -0.2855
  842SOL    HW1 2661   0.334   4.840   2.690 -0.4628  0.1104 -0.2735
  842SOL    HW2 2662   0.473   4.884   2.650 -0.3052  0.2689  0.4337
  843SOL     OW 2663   1.277   3.572   2.022  0.4195 -0.7812 -0.0882
  843SOL    HW1 2664   1.334   3.517   2.076  0.1478 -1.1870 -0.2045
  843SOL    HW2 2665   1.224   3.509   1.972 -0.0902 -0.4146 -0.0193
  844SOL     OW 2666   4.858   1.429   0.240 -0.1272 -0.1353 -0.7402
  844SOL    HW1 2667   4.777   1.390   0.207 -0.1133 -0.5250 -0.3130
  844SOL    HW2 2668   4.852   1.420   0.335  1.0534 -1.4479 -0.7604
  845SOL     OW 2669   3.239   2.871   4.163 -0.3197  0.2775 -0.2267
  845SOL    HW1 2670   3.164   2.842   4.111 -0.4936 -2.6385  1.4186
  845SOL    HW2 2671   3.305   2.804   4.149 -0.1814 -0.3440  2.7409
  846SOL     OW 2672   2.027   2.157   3.651  0.2736  0.2075 -0.0432
  846SOL    HW1 2673   1.942   2.113   3.652 -0.2481  1.1857  0.8263
  846SOL    HW2 2674   2.089   2.088   3.632 -0.0113 -1.9310  5.1396
  847SOL     OW 2675   3.772   4.056   2.884  0.3557 -0.1434 -0.4239
  847SOL    HW1 2676   3.793   4.088   2.796 -1.0001  0.9407 -0.3747
  847SOL    HW2 2677   3.807   3.967   2.885  0.9768  0.0550 -1.8340
  848SOL     OW 2678   4.691   2.331   2.264 -0.3586  0.1305  0.0091
  848SOL    HW1 2679   4.684   2.338   2.169 -0.6897  0.6426  0.0634
  848SOL    HW2 2680   4.666   2.241   2.284 -3.5259  0.8472 -0.1374
  849SOL     OW 2681   0.635   3.124   3.214 -0.4965  0.7091 -0.6001
  849SOL    HW1 2682   0.595   3.039   3.197 -1.0488  0.6092  0.9632
  849SOL    HW2 2683   0.672   3.116   3.303  0.2010  1.8256 -0.7626
  850SOL     OW 2684   1.301   1.668   0.677 -0.0041 -0.2219 -0.5927
  850SOL    HW1 2685   1.324   1.667   0.770  0.3159 -1.3885 -0.6576
  850SOL    HW2 2686   1.205   1.671   0.676 -0.0072 -0.1006 -0.2303
  851SOL     OW 2687   4.132   2.285   2.484 -0.2926  0.3699  0.2770
  851SOL    HW1 2688   4.121   2.229   2.407 -1.0528  1.1903 -0.2340
  851SOL    HW2 2689   4.136   2.373   2.448  1.2970  0.6279  1.0357
  852SOL     OW 2690   3.568   1.676   1.601 -0.3101  0.0637  0.5218
  852SOL    HW1 2691   3.558   1.625   1.681 -1.3013  1.4942  1.3467
  852SOL    HW2 2692   3.565   1.611   1.531 -2.8834 -0.9457  1.4571
  853SOL     OW 2693   2.494   4.145   0.748 -0.3580 -0.4409  0.4476
  853SOL    HW1 2694   2.491   4.076   0.814  0.9107  0.4359  1.4770
  853SOL    HW2 2695   2.587   4.163   0.737 -0.6457  2.5272  1.7951
  854SOL     OW 2696   3.149   2.668   1.419  0.0824 -0.1182  0.1926
  854SOL    HW1 2697   3.245   2.665   1.422  0.0492 -2.1287  2.4133
  854SOL    HW2 2698   3.126   2.757   1.446  1.3136 -0.0463  1.0439
  855SOL     OW 2699   4.603   2.383   4.067  0.2685 -0.3804  0.2244
  855SOL    HW1 2700   4.599   2.296   4.027  0.8817 -0.0248 -0.6374
  855SOL    HW2 2701   4.538   2.434   4.019  0.5741 -0.1125  0.0959
  856SOL     OW 2702   0.793   0.365   2.117 -0.2224 -0.5466 -0.5792
  856SOL    HW1 2703   0.719   0.413   2.081 -0.0106 -1.1727 -1.9154
  856SOL    HW2 2704   0.797   0.391   2.209 -2.0848 -0.4852 -0.4883
  857SOL     OW 2705   4.453   2.350   0.862  0.8201  0.0893  0.6796
  857SOL    HW1 2706   4.408   2.272   0.829  2.0043  0.3669 -1.7491
  857SOL    HW2 2707   4.524   2.315   0.916  1.8931 -0.6239 -1.1007
  858SOL     OW 2708   3.806   0.922   2.249  0.5161 -0.6310  0.4742
  858SOL    HW1 2709   3.816   0.861   2.176  2.1318  0.6831 -0.4941
  858SOL    HW2 2710   3.719   0.960   2.236 -0.0759 -1.9173  0.4871
  859SOL     OW 2711   4.278   3.339   1.948  0.0080  0.3451 -0.0351
  859SOL    HW1 2712   4.306   3.248   1.951  0.3997  0.3526 -2.0308
  859SOL    HW2 2713   4.359   3.389   1.959 -0.3077  0.4949  1.8457
  860SOL     OW 2714   0.772   3.831   1.576  0.7871 -0.2682  0.5983
  860SOL    HW1 2715   0.680   3.808   1.560  1.0487  0.5194 -2.4465
  860SOL    HW2 2716   0.810   3.751   1.613 -0.8801 -0.9257  0.9809
  861SOL     OW 2717   4.718   3.895   0.809 -0.1556  0.3893  0.1936
  861SOL    HW1 2718   4.624   3.882   0.821  0.0830 -1.9119  0.0630
  861SOL    HW2 2719   4.724   3.963   0.742 -1.7823 -0.7916 -1.2445
  862SOL     OW 2720   1.114   4.715   4.568 -0.3059  0.3603  0.4787
  862SOL    HW1 2721   1.111   4.625   4.602 -1.3383 -0.1775 -0.9461
  862SOL    HW2 2722   1.194   4.719   4.517 -1.3875 -0.5350 -1.3894
  863SOL     OW 2723   5.046   1.105   0.445  0.4164 -0.2090 -0.7120
  863SOL    HW1 2724   5.027   1.020   0.405  1.4300 -1.0477  0.5237
  863SOL    HW2 2725   5.003   1.101   0.530  0.0183  0.7474 -0.8537
  864SOL     OW 2726   2.367   1.252   1.109 -0.0806 -0.0528 -0.2937
  864SOL    HW1 2727   2.437   1.229   1.048  0.3872 -0.3184  0.3364
  864SOL    HW2 2728   2.409   1.307   1.175 -0.1358 -1.3536  0.8715
  865SOL     OW 2729   1.793   2.668   1.108 -0.2323  0.1605  0.4312
  865SOL    HW1 2730   1.731   2.709   1.168 -0.7110  1.5764 -0.9820
  865SOL    HW2 2731   1.877   2.709   1.129  0.1390 -1.1617  1.7759
  866SOL     OW 2732   2.215   2.688   3.705 -0.2524  0.0941 -0.0594
  866SOL    HW1 2733   2.260   2.773   3.710  0.4220 -0.3261  2.7934
  866SOL    HW2 2734   2.149   2.691   3.773 -1.9841 -0.8058 -1.5935
  867SOL     OW 2735   0.889   0.772   1.069  0.8097  0.5728 -0.4386
  867SOL    HW1 2736   0.921   0.801   0.984 -0.4237 -0.9096 -1.4813
  867SOL    HW2 2737   0.799   0.805   1.074  0.2885 -0.7729 -0.4989
  868SOL     OW 2738   0.342   0.098   3.770  0.2408  0.0881 -0.7262
  868SOL    HW1 2739   0.277   0.031   3.788 -0.2283  0.4626 -1.0185
  868SOL    HW2 2740   0.398   0.060   3.703  1.0829 -0.7208  0.3960
  869SOL     OW 2741   0.729   0.722   2.940 -0.5962 -0.3398 -0.4816
  869SOL    HW1 2742   0.730   0.781   2.864  0.6601  0.0954 -0.1478
  869SOL    HW2 2743   0.802   0.751   2.994 -0.8571 -1.2880  0.4175
  870SOL     OW 2744   1.725   0.770   1.678 -0.0020  0.0295  0.1242
  870SOL    HW1 2745   1.807   0.757   1.727 -1.3222  1.8567  3.1588
  870SOL    HW2 2746   1.747   0.836   1.612  1.1968 -0.2875  0.1766
  871SOL     OW 2747   0.934   4.031   3.148 -0.3907  0.3171 -0.0787
  871SOL    HW1 2748   0.923   4.107   3.090  1.7243  0.5605 -0.2693
  871SOL    HW2 2749   0.994   4.063   3.216 -0.0064 -0.9880  0.2085
  872SOL     OW 2750   1.951   0.516   1.556  0.2542  0.0523  0.1595
  872SOL    HW1 2751   2.019   0.456   1.586 -0.1416  0.3103  1.6792
  872SOL    HW2 2752   1.869   0.479   1.589 -0.0386  1.1662  0.7624
  873SOL     OW 2753   0.572   1.965   0.655 -0.0281 -0.3480  0.0881
  873SOL    HW1 2754   0.666   1.976   0.639  0.2969 -2.6197  0.0592
  873SOL    HW2 2755   0.532   2.046   0.626  1.5690 -0.5879 -3.1410
  874SOL     OW 2756   4.300   4.163   0.509 -0.2221  0.0420  0.0480
  874SOL    HW1 2757   4.321   4.089   0.453  0.5283 -0.1744  0.6030
  874SOL    HW2 2758   4.274   4.233   0.448 -0.3767 -0.4866 -0.5037
  875SOL     OW 2759   2.249   3.933   3.848 -0.4171 -0.0040 -0.5028
  875SOL    HW1 2760   2.221   3.845   3.826 -1.8614  0.2858  0.0804
  875SOL    HW2 2761   2.328   3.920   3.901  2.5542 -0.7375 -4.6265
  876SOL     OW 2762   4.894   2.933   4.788 -0.2045 -0.0265 -0.2813
  876SOL    HW1 2763   4.810   2.955   4.747  0.7592  2.0808 -1.2834
  876SOL    HW2 2764   4.870   2.890   4.871 -2.2953  1.7843  0.1437
  877SOL     OW 2765   1.185   0.428   2.139  0.3808  0.3027  0.3589
  877SOL    HW1 2766   1.155   0.393   2.222 -1.7116  0.2223 -0.3777
  877SOL    HW2 2767   1.164   0.521   2.143 -0.0872  0.2279 -0.2097
  878SOL     OW 2768   1.084   0.038   0.803 -0.2964  0.3872  0.2914
  878SOL    HW1 2769   1.086   0.126   0.764  1.1774  0.0174 -0.5290
  878SOL    HW2 2770   1.137   0.046   0.882 -0.2615  0.2518  0.2812
  879SOL     OW 2771   4.457   1.170   1.967  0.1054  0.1743 -0.1015
  879SOL    HW1 2772   4.369   1.134   1.975  0.2880 -0.6023 -1.3075
  879SOL    HW2 2773   4.512   1.111   2.019  0.1190 -0.1478 -0.4834
  880SOL     OW 2774   2.712   1.990   4.218 -0.0081  0.0557 -0.0504
  880SOL    HW1 2775   2.702   1.924   4.149  1.3736 -0.1813 -0.0516
  880SOL    HW2 2776   2.800   2.025   4.204  0.4648 -0.2949  1.8642
  881SOL     OW 2777   1.202   2.206   3.526  0.2026 -0.3644  0.0345
  881SOL    HW1 2778   1.121   2.194   3.574 -0.3695 -0.4906 -0.9286
  881SOL    HW2 2779   1.270   2.170   3.583 -0.3890 -0.1056  0.9196
  882SOL     OW 2780   3.650   3.393   1.273 -0.7424  0.2055  0.1785
  882SOL    HW1 2781   3.664   3.303   1.302  1.1977  0.2947 -0.3638
  882SOL    HW2 2782   3.652   3.388   1.177  1.0596  1.0185  0.1378
  883SOL     OW 2783   3.822   3.058   2.398 -0.2351 -0.2609 -0.1599
  883SOL    HW1 2784   3.850   3.094   2.313 -0.0861  0.6327  0.2604
  883SOL    HW2 2785   3.879   3.100   2.462 -1.2161  0.0775  0.5151
  884SOL     OW 2786   4.347   3.489   2.276  0.6155 -0.0879 -0.6378
  884SOL    HW1 2787   4.381   3.410   2.234  0.1466 -0.4608 -0.3330
  884SOL    HW2 2788   4.425   3.532   2.314  0.8198 -0.6360 -0.4272
  885SOL     OW 2789   2.494   1.118   3.761  0.3385 -0.1373  0.3330
  885SOL    HW1 2790   2.573   1.067   3.743  0.2154 -0.4069  0.5573
  885SOL    HW2 2791   2.432   1.054   3.797  0.6412  0.4296  1.9091
  886SOL     OW 2792   3.332   3.972   0.079 -0.4239  0.0461  1.1317
  886SOL    HW1 2793   3.253   4.022   0.056 -1.5252 -1.0903  2.2767
  886SOL    HW2 2794   3.300   3.885   0.102  1.2196 -0.5513  1.3103
  887SOL     OW 2795   4.297   0.802   4.666  0.5874  0.3075 -0.1631
  887SOL    HW1 2796   4.324   0.811   4.575 -0.9332 -2.2045 -0.9634
  887SOL    HW2 2797   4.228   0.868   4.677 -0.4074 -0.4727 -1.4006
  888SOL     OW 2798   1.763   3.868   4.121  0.2302  0.0590 -0.0741
  888SOL    HW1 2799   1.710   3.795   4.152  0.3133  0.1394  0.2685
  888SOL    HW2 2800   1.782   3.919   4.200 -2.2354  2.0544 -0.6248
  889SOL     OW 2801   0.982   0.811   3.576 -0.0920  0.0034 -0.2184
  889SOL    HW1 2802   0.893   0.846   3.578 -0.5796 -0.8980 -2.7990
  889SOL    HW2 2803   0.991   0.764   3.659 -2.9745 -1.9627 -0.8706
  890SOL     OW 2804   1.419   1.934   1.097  0.6169  0.6927 -0.5378
  890SOL    HW1 2805   1.510   1.943   1.123  0.3227  0.6826  0.5223
  890SOL    HW2 2806   1.400   2.013   1.047  0.7064  1.5504  0.7546
  891SOL     OW 2807   4.222   2.098   4.525 -0.0408  0.1861  0.0801
  891SOL    HW1 2808   4.306   2.135   4.551 -0.3238  0.0348  1.3051
  891SOL    HW2 2809   4.244   2.030   4.461  0.8728 -0.5598  1.1459
  892SOL     OW 2810   2.881   3.210   3.178 -0.6667  0.2162 -0.5655
  892SOL    HW1 2811   2.952   3.242   3.233 -0.8166  2.8285 -1.7239
  892SOL    HW2 2812   2.924   3.184   3.096 -0.8264 -0.2046 -0.5180
  893SOL     OW 2813   1.505   0.462   0.708 -0.3352 -0.1189  1.0419
  893SOL    HW1 2814   1.450   0.538   0.731  0.3807  1.6101 -2.3132
  893SOL    HW2 2815   1.593   0.498   0.699  0.4257 -1.8216  1.3316
  894SOL     OW 2816   5.023   0.748   4.783  0.5761  0.2959 -0.1140
  894SOL    HW1 2817   5.093   0.692   4.750 -0.1612 -0.7356  0.0170
  894SOL    HW2 2818   4.954   0.687   4.809  0.3156  1.1885  1.3958
  895SOL     OW 2819   3.400   2.013   3.844 -0.0103 -0.5574 -0.5113
  895SOL    HW1 2820   3.320   2.061   3.822 -1.0863 -1.6778  0.7759
  895SOL    HW2 2821   3.466   2.082   3.856 -1.1939  0.5373  0.0467
  896SOL     OW 2822   0.649   3.233   2.371  0.1446 -0.1932 -0.4275
  896SOL    HW1 2823   0.676   3.202   2.457  0.1496 -1.6181 -0.9204
  896SOL    HW2 2824   0.553   3.228   2.373  0.0939  0.7537 -0.1613
  897SOL     OW 2825   1.699   0.456   1.387 -0.1067  0.5110  0.1382
  897SOL    HW1 2826   1.704   0.440   1.481  3.0785  1.8696  0.3287
  897SOL    HW2 2827   1.749   0.385   1.347  0.4278  1.1461 -0.3419
  898SOL     OW 2828   4.362   1.542   4.752 -0.3954 -0.7414 -0.2836
  898SOL    HW1 2829   4.376   1.620   4.806  1.8338 -1.5351  0.3900
  898SOL    HW2 2830   4.368   1.574   4.662 -0.5343  0.0163 -0.0322
  899SOL     OW 2831   1.942   0.542   0.928  0.4706 -0.0552  0.5955
  899SOL    HW1 2832   1.929   0.477   0.997 -0.1029 -0.1366  0.4128
  899SOL    HW2 2833   1.858   0.586   0.920  0.3464 -0.4526 -0.4745
  900SOL     OW 2834   1.733   4.437   1.964  0.0946 -1.0614  0.1939
  900SOL    HW1 2835   1.775   4.448   2.049  1.1943 -3.4388  0.0528
  900SOL    HW2 2836   1.789   4.484   1.903 -1.5498  2.0471  0.8514
  901SOL     OW 2837   4.025   4.204   0.532  0.5960 -0.7834 -0.4072
  901SOL    HW1 2838   4.099   4.148   0.557  1.3376  0.3869  0.0447
  901SOL    HW2 2839   4.046   4.232   0.443 -0.3008 -2.0366 -1.0604
  902SOL     OW 2840   3.106   0.017   0.153  0.3679  0.5711  0.6509
  902SOL    HW1 2841   3.026  -0.024   0.120  1.6300 -1.5509  0.0402
  902SOL    HW2 2842   3.102   0.107   0.120 -2.3210  0.9587  1.6909
  903SOL     OW 2843   1.275   3.425   2.357 -0.2170  0.5664 -0.3938
  903SOL    HW1 2844   1.260   3.364   2.285  0.2246 -1.6801  1.3162
  903SOL    HW2 2845   1.230   3.386   2.432  2.1544  0.9764  1.3723
  904SOL     OW 2846   1.676   4.224   1.300  0.3382 -0.3377 -0.0819
  904SOL    HW1 2847   1.669   4.129   1.290 -0.1008 -0.1953 -1.2785
  904SOL    HW2 2848   1.617   4.245   1.372  2.4859 -1.2580  2.0849
  905SOL     OW 2849   2.598   3.692   2.245  0.0147 -0.0677  0.6728
  905SOL    HW1 2850   2.574   3.775   2.288 -1.7491 -0.0550 -0.2483
  905SOL    HW2 2851   2.659   3.651   2.306 -0.3885  1.1459  1.9580
  906SOL     OW 2852   1.400   2.509   3.685  0.3415  0.1620 -0.2752
  906SOL    HW1 2853   1.318   2.548   3.717 -1.1016 -2.5826 -0.3191
  906SOL    HW2 2854   1.379   2.479   3.597  1.9908  0.9170 -0.9728
  907SOL     OW 2855   3.244   1.719   0.177 -0.8169  0.2622  0.0897
  907SOL    HW1 2856   3.293   1.767   0.243 -0.2723 -0.5870  0.3175
  907SOL    HW2 2857   3.171   1.679   0.225 -1.0556  0.5515 -0.0298
  908SOL     OW 2858   4.035   1.233   4.309 -0.1203  0.1003 -0.2279
  908SOL    HW1 2859   4.126   1.220   4.337  0.1060  1.7817 -0.0691
  908SOL    HW2 2860   4.001   1.298   4.371 -1.9281 -1.6155  0.6788
  909SOL     OW 2861   3.952   3.156   2.620 -0.0206  0.1225 -0.9948
  909SOL    HW1 2862   4.004   3.234   2.638  1.2274 -0.8007 -0.4593
  909SOL    HW2 2863   3.868   3.174   2.662  1.6874 -0.5797  3.2430
  910SOL     OW 2864   3.014   3.109   1.471  0.2971  0.7669 -0.6867
  910SOL    HW1 2865   3.022   3.177   1.538  0.1114 -0.4445  0.6113
  910SOL    HW2 2866   3.104   3.096   1.439  0.8869 -0.5423  1.3211
  911SOL     OW 2867   2.599   3.437   1.970  0.4518  0.0444 -0.3113
  911SOL    HW1 2868   2.599   3.468   2.060  1.8847 -0.4706 -0.1188
  911SOL    HW2 2869   2.641   3.352   1.974  0.7964  0.1456 -1.5139
  912SOL     OW 2870   2.732   4.173   4.922  0.1283 -0.6498  0.4909
  912SOL    HW1 2871   2.718   4.110   4.993  2.0055 -1.6241  0.0741
  912SOL    HW2 2872   2.741   4.257   4.967 -0.3713 -0.9843  1.2501
  913SOL     OW 2873   3.774   3.523   2.413 -0.4326 -0.7388  0.6814
  913SOL    HW1 2874   3.733   3.441   2.439  0.3213 -0.9112  1.3595
  913SOL    HW2 2875   3.705   3.571   2.367 -1.4194 -0.9847  1.8611
  914SOL     OW 2876   4.913   1.511   2.068  0.4781 -0.5082  0.0457
  914SOL    HW1 2877   4.822   1.528   2.042  0.0722 -2.8093 -0.2727
  914SOL    HW2 2878   4.966   1.554   2.001 -0.5168 -4.5557 -3.8391
  915SOL     OW 2879   1.680   0.823   4.914  0.1678  0.3460  0.2672
  915SOL    HW1 2880   1.708   0.752   4.971  0.4549 -0.1961 -0.5376
  915SOL    HW2 2881   1.642   0.888   4.974 -0.6516 -0.7350  0.9612
  916SOL     OW 2882   4.915   0.102   3.043  0.4268 -0.3734 -0.0524
  916SOL    HW1 2883   4.873   0.054   3.114  0.5709 -0.6686 -0.1644
  916SOL    HW2 2884   4.844   0.152   3.003  0.4001  0.0237  0.4833
  917SOL     OW 2885   1.523   2.062   3.133 -0.4346 -0.2065 -0.2325
  917SOL    HW1 2886   1.516   2.015   3.050  0.5368  0.5435 -0.7583
  917SOL    HW2 2887   1.597   2.020   3.178 -0.2823  0.0762 -0.2153
  918SOL     OW 2888   2.534   2.837   0.267  0.3900 -0.2382 -0.4564
  918SOL    HW1 2889   2.630   2.836   0.273  0.4416 -0.8291 -1.2678
  918SOL    HW2 2890   2.516   2.817   0.175 -0.5242 -0.5773 -0.2060
  919SOL     OW 2891   1.692   1.247   2.407 -0.2900  0.2874 -0.5986
  919SOL    HW1 2892   1.770   1.228   2.355 -0.3529 -0.1823 -0.5291
  919SOL    HW2 2893   1.683   1.172   2.466 -1.0679  0.0939 -0.9390
  920SOL     OW 2894   1.366   3.533   0.767  0.2097  0.3234 -0.3781
  920SOL    HW1 2895   1.279   3.543   0.804  0.4529 -0.5301  0.4685
  920SOL    HW2 2896   1.397   3.623   0.753  0.3255  0.7235  2.0440
  921SOL     OW 2897   3.374   2.712   3.966  0.2041 -0.1558  0.5488
  921SOL    HW1 2898   3.449   2.704   4.025  0.4247  2.0592  0.6581
  921SOL    HW2 2899   3.412   2.707   3.878  0.2679 -0.4984  0.5931
  922SOL     OW 2900   0.621   3.017   1.400 -0.1393 -0.1056  0.2701
  922SOL    HW1 2901   0.535   3.050   1.375 -0.0964 -0.6461 -0.6699
  922SOL    HW2 2902   0.682   3.085   1.372 -0.0195 -1.0329 -1.9812
  923SOL     OW 2903   0.545   0.273   4.235  0.5836 -0.0025  0.2569
  923SOL    HW1 2904   0.523   0.251   4.325  1.6683 -2.6780 -0.0492
  923SOL    HW2 2905   0.640   0.257   4.229  0.6205  0.5993 -1.2559
  924SOL     OW 2906   3.157   4.147   1.862 -0.2748  0.1145 -1.0384
  924SOL    HW1 2907   3.148   4.055   1.840  0.7330 -0.2487 -0.0097
  924SOL    HW2 2908   3.227   4.179   1.806  0.0450  0.0066 -0.7032
  925SOL     OW 2909   2.505   0.599   2.440 -0.6031 -0.0340  0.0071
  925SOL    HW1 2910   2.565   0.552   2.382 -0.2005 -0.8552  1.0499
  925SOL    HW2 2911   2.502   0.688   2.405 -1.3957 -0.8010 -2.0300
  926SOL     OW 2912   0.058   4.479   4.928  0.5325  0.5479 -0.1502
  926SOL    HW1 2913   0.042   4.385   4.920 -2.3065  0.9923 -0.9157
  926SOL    HW2 2914   0.022   4.502   5.014 -0.1005  1.1254 -0.5600
  927SOL     OW 2915   4.918   0.864   4.297  0.6194  0.2996 -0.4942
  927SOL    HW1 2916   4.847   0.832   4.352 -0.5337  0.1614 -1.9833
  927SOL    HW2 2917   4.942   0.948   4.335 -1.6641  1.2618 -1.0119
  928SOL     OW 2918   3.932   0.620   2.389  0.9107  0.1396 -0.0632
  928SOL    HW1 2919   3.868   0.650   2.324 -0.5025 -0.0882  1.1677
  928SOL    HW2 2920   3.927   0.525   2.385 -0.1360  0.1084  1.2168
  929SOL     OW 2921   4.102   2.011   1.600 -0.3031  0.4301  0.6305
  929SOL    HW1 2922   4.121   2.103   1.580 -2.1786  0.4031 -1.6675
  929SOL    HW2 2923   4.031   2.015   1.664  1.9519  0.4891  3.3180
  930SOL     OW 2924   1.831   0.551   2.484 -0.4168  0.0394 -0.4430
  930SOL    HW1 2925   1.869   0.635   2.457  0.5203  0.6204  2.3396
  930SOL    HW2 2926   1.737   0.564   2.478 -0.3013  1.5295  0.4890
  931SOL     OW 2927   0.803   0.317   1.312 -0.4214  0.5176 -0.2832
  931SOL    HW1 2928   0.759   0.241   1.274 -1.0313  0.3882  0.6630
  931SOL    HW2 2929   0.779   0.390   1.254  0.5359 -0.0677 -1.4581
  932SOL     OW 2930   0.436   1.009   1.085  0.2202  0.0087 -0.1427
  932SOL    HW1 2931   0.341   1.012   1.097  0.1483 -0.4637 -0.5369
  932SOL    HW2 2932   0.452   1.064   1.008  0.3423  0.6047  0.3017
  933SOL     OW 2933   2.752   1.739   0.362  0.2240 -0.0263 -0.0894
  933SOL    HW1 2934   2.668   1.771   0.328 -0.1516  1.4292  2.0373
  933SOL    HW2 2935   2.727   1.668   0.421  0.5095  0.3011  0.4219
  934SOL     OW 2936   3.002   4.282   4.460  0.7003 -0.2726 -0.4090
  934SOL    HW1 2937   3.088   4.314   4.487  0.5067  1.6023 -1.8746
  934SOL    HW2 2938   2.945   4.302   4.534  1.3690 -0.9413  0.3080
  935SOL     OW 2939   0.331   2.508   4.088  0.5607  0.0532 -0.4000
  935SOL    HW1 2940   0.245   2.481   4.119  0.5645  0.0860 -0.3603
  935SOL    HW2 2941   0.323   2.510   3.992  1.1231 -2.0312 -0.5369
  936SOL     OW 2942   0.949   2.873   2.813  0.3739 -0.2820  0.0714
  936SOL    HW1 2943   1.034   2.828   2.821  0.3385 -0.6606 -1.3272
  936SOL    HW2 2944   0.889   2.820   2.865  1.0701  0.2538  1.4674
  937SOL     OW 2945   3.855   3.566   1.755 -0.0740  0.0317 -0.4640
  937SOL    HW1 2946   3.893   3.654   1.749 -0.7656  0.3268 -0.5421
  937SOL    HW2 2947   3.794   3.571   1.828 -0.8033 -0.1204 -1.0558
  938SOL     OW 2948   1.472   0.039   4.424 -0.3664  0.7106  0.2542
  938SOL    HW1 2949   1.474   0.134   4.419 -0.8197  0.6601 -1.5088
  938SOL    HW2 2950   1.412   0.020   4.497 -3.7823  1.8247 -2.0177
  939SOL     OW 2951   2.037   4.732   1.786  0.0561 -0.2012  0.0514
  939SOL    HW1 2952   2.096   4.758   1.716 -0.4448 -0.7736 -0.5928
  939SOL    HW2 2953   2.090   4.674   1.842 -0.2754 -1.9397 -1.3446
  940SOL     OW 2954   0.323   0.421   1.473  0.1944  0.0882  0.0555
  940SOL    HW1 2955   0.356   0.347   1.422 -1.5304 -0.6347 -0.0641
  940SOL    HW2 2956   0.397   0.482   1.476  0.8962 -0.6008 -1.8284
  941SOL     OW 2957   4.886   3.330   0.233 -0.5775 -0.0810  0.1681
  941SOL    HW1 2958   4.924   3.252   0.275 -2.5483 -0.4144  1.4517
  941SOL    HW2 2959   4.802   3.342   0.276 -1.4440  1.3030 -1.7608
  942SOL     OW 2960   1.403   1.414   3.622 -0.1664 -0.7667 -0.1180
  942SOL    HW1 2961   1.342   1.386   3.691  0.2813 -1.2466  0.0988
  942SOL    HW2 2962   1.481   1.441   3.670 -0.2120 -0.1435 -0.3918
  943SOL     OW 2963   4.073   1.732   1.387  0.1847  0.2167  0.1905
  943SOL    HW1 2964   4.096   1.824   1.395 -0.5102  0.3121  1.2555
  943SOL    HW2 2965   4.097   1.693   1.471  1.2884 -0.7731 -0.5463
  944SOL     OW 2966   1.448   4.649   1.302 -0.4803  0.6095  0.3614
  944SOL    HW1 2967   1.365   4.634   1.257  0.3629 -1.9088 -0.5628
  944SOL    HW2 2968   1.512   4.657   1.231  0.8080 -2.9670  0.9042
  945SOL     OW 2969   1.145   1.401   2.585  1.0244 -0.1739 -0.3163
  945SOL    HW1 2970   1.223   1.411   2.531 -0.0853  1.2873 -1.7278
  945SOL    HW2 2971   1.072   1.396   2.523 -0.1604  0.1387  0.9914
  946SOL     OW 2972   0.092   2.877   3.336 -0.2432 -0.0062 -0.7429
  946SOL    HW1 2973   0.051   2.962   3.320 -1.2810 -0.4843 -0.6933
  946SOL    HW2 2974   0.173   2.898   3.382  0.0986  1.0305 -1.7641
  947SOL     OW 2975   3.631   2.239   2.818 -0.4409 -0.3061  0.1767
  947SOL    HW1 2976   3.710   2.246   2.765 -1.2368  0.1056 -0.9863
  947SOL    HW2 2977   3.613   2.329   2.847 -0.9779 -0.2427 -0.3260
  948SOL     OW 2978   3.652   4.617   2.514 -0.3404 -0.3938  0.6227
  948SOL    HW1 2979   3.575   4.595   2.460 -0.8972  0.1604  1.1785
  948SOL    HW2 2980   3.616   4.661   2.590  0.3837 -1.7775  1.8112
  949SOL     OW 2981   2.430   4.129   3.997 -0.2433 -0.7966  0.3020
  949SOL    HW1 2982   2.450   4.219   3.972 -1.4522 -0.8861 -1.1373
  949SOL    HW2 2983   2.465   4.076   3.925 -0.4412 -1.3938  0.6363
  950SOL     OW 2984   1.049   1.354   0.036  0.0167  0.4379  0.0854
  950SOL    HW1 2985   1.053   1.440  -0.007  1.9511  0.5540  0.4428
  950SOL    HW2 2986   1.037   1.373   0.128  0.7913  0.3487  0.2102
  951SOL     OW 2987   2.449   2.537   2.155 -0.0485 -0.4885 -0.7870
  951SOL    HW1 2988   2.463   2.631   2.166  1.6714 -0.6546 -1.2014
  951SOL    HW2 2989   2.354   2.526   2.154 -0.2784  1.0941  0.3889
  952SOL     OW 2990   2.787   0.801   1.854  0.1514 -0.4004 -0.7131
  952SOL    HW1 2991   2.711   0.847   1.817  0.4718  0.9522  0.2206
  952SOL    HW2 2992   2.860   0.829   1.799  0.4641  0.8429  0.2674
  953SOL     OW 2993   0.667   3.767   0.756  0.5326  0.3217  0.5413
  953SOL    HW1 2994   0.687   3.827   0.684 -1.4093 -0.2653 -0.5595
  953SOL    HW2 2995   0.582   3.796   0.788  0.3067 -0.8612  1.0505
  954SOL     OW 2996   3.675   4.106   0.787 -0.2850  0.1344  0.2719
  954SOL    HW1 2997   3.593   4.080   0.827 -0.3034 -1.2800 -0.6236
  954SOL    HW2 2998   3.654   4.122   0.695  0.4546 -0.3501  0.0075
  955SOL     OW 2999   3.141   2.393   1.403 -0.7534 -0.0545  0.5461
  955SOL    HW1 3000   3.113   2.378   1.494 -0.4547  0.2033  0.6850
  955SOL    HW2 3001   3.131   2.487   1.391 -0.5289 -0.0489  0.4026
  956SOL     OW 3002   1.812   2.541   0.855  0.0688  0.0782  0.2463
  956SOL    HW1 3003   1.887   2.556   0.798 -2.5994 -0.2855 -3.7463
  956SOL    HW2 3004   1.806   2.621   0.908  3.0544  0.1789  0.5920
  957SOL     OW 3005   0.920   4.320   4.114 -0.5606  0.0481 -0.0879
  957SOL    HW1 3006   0.989   4.383   4.094  1.1506 -1.6660  0.1100
  957SOL    HW2 3007   0.932   4.299   4.206 -0.5436 -1.1929 -0.3604
  958SOL     OW 3008   2.663   0.409   0.544 -0.2356  0.0621 -0.6426
  958SOL    HW1 3009   2.681   0.405   0.637  1.1112  2.2522 -0.7384
  958SOL    HW2 3010   2.749   0.406   0.502 -0.6665  1.1573 -1.6738
  959SOL     OW 3011   2.443   3.214   1.704 -0.0015 -0.0568 -0.1406
  959SOL    HW1 3012   2.448   3.306   1.730  0.7124  0.4307 -1.8760
  959SOL    HW2 3013   2.534   3.188   1.693 -0.2207  0.1548 -3.2401
  960SOL     OW 3014   0.968   0.499   1.113  0.0915  0.0974 -0.7568
  960SOL    HW1 3015   0.948   0.592   1.101 -0.8169  0.0237 -0.0184
  960SOL    HW2 3016   0.941   0.458   1.031  0.1379  0.4400 -0.9445
  961SOL     OW 3017   1.294   2.480   2.519  0.5599 -0.0474  0.0291
  961SOL    HW1 3018   1.248   2.487   2.436  0.9525  0.8632 -0.1252
  961SOL    HW2 3019   1.259   2.401   2.560 -0.5906  0.2278 -0.4043
  962SOL     OW 3020   0.304   1.909   4.741 -0.3269 -0.1475 -0.1503
  962SOL    HW1 3021   0.315   1.902   4.836  1.3640  2.7100 -0.0216
  962SOL    HW2 3022   0.214   1.939   4.729 -1.1470 -2.2107  0.3458
  963SOL     OW 3023   2.094   0.044   1.710 -0.2205  0.1266 -0.3955
  963SOL    HW1 3024   2.029   0.054   1.641 -2.3955  1.0888  1.6211
  963SOL    HW2 3025   2.045   0.010   1.785  2.2101 -1.8187  0.4519
  964SOL     OW 3026   4.994   0.733   1.019 -0.3148 -0.0098  0.2780
  964SOL    HW1 3027   5.018   0.816   0.978  0.0251 -0.7557 -1.1328
  964SOL    HW2 3028   5.021   0.667   0.955  0.2316 -1.2625  1.7360
  965SOL     OW 3029   2.375   2.312   0.957 -0.0243  0.2569 -0.2103
  965SOL    HW1 3030   2.399   2.344   1.044  0.2041 -0.8871  0.1626
  965SOL    HW2 3031   2.397   2.385   0.898 -1.7755  1.7238  0.8397
  966SOL     OW 3032   1.744   0.024   0.219 -0.1758 -0.6657 -0.2606
  966SOL    HW1 3033   1.833   0.044   0.247 -0.3367  0.1843 -0.3215
  966SOL    HW2 3034   1.689   0.066   0.285 -0.5560 -3.4106  1.3149
  967SOL     OW 3035   1.770   5.026   4.169 -0.0653  0.5214  0.2497
  967SOL    HW1 3036   1.865   5.031   4.160 -0.1793 -0.1485 -1.8317
  967SOL    HW2 3037   1.756   4.964   4.242  1.0639  1.2208  1.0851
  968SOL     OW 3038   4.347   2.027   3.770 -0.5072 -0.4384  0.7346
  968SOL    HW1 3039   4.322   2.093   3.705  1.1166 -2.3652 -2.0703
  968SOL    HW2 3040   4.273   1.966   3.772 -1.0931  0.2791  1.7085
  969SOL     OW 3041   2.859   3.843   3.899 -0.2753  0.0901 -0.3325
  969SOL    HW1 3042   2.949   3.815   3.914  0.0596 -0.1051 -2.3757
  969SOL    HW2 3043   2.837   3.896   3.975  1.0666 -1.0127  0.8713
  970SOL     OW 3044   4.095   3.681   3.027  0.1025 -0.5802  0.1733
  970SOL    HW1 3045   4.001   3.696   3.031  0.3244  0.9049  0.4140
  970SOL    HW2 3046   4.106   3.611   2.962 -1.1744 -1.0376  0.4266
  971SOL     OW 3047   1.653   3.730   1.212 -0.1041  0.1706  0.6276
  971SOL    HW1 3048   1.677   3.822   1.209 -0.3579  0.2483 -2.7133
  971SOL    HW2 3049   1.594   3.723   1.287 -1.4695  3.1311 -0.0387
  972SOL     OW 3050   4.892   1.737   2.388 -0.1609  0.0219  0.0026
  972SOL    HW1 3051   4.975   1.771   2.421 -1.0564  1.7621  0.6413
  972SOL    HW2 3052   4.914   1.653   2.348  2.2223  1.3221 -1.6498
  973SOL     OW 3053   2.423   3.143   2.725 -0.4240  0.6047  0.0399
  973SOL    HW1 3054   2.506   3.189   2.712  0.7121 -0.1605  3.4553
  973SOL    HW2 3055   2.443   3.052   2.705 -0.7684  0.5782 -0.1900
  974SOL     OW 3056   1.503   2.402   0.430  0.5412  0.1508  0.4545
  974SOL    HW1 3057   1.515   2.450   0.348  0.2922 -1.2354 -0.4329
  974SOL    HW2 3058   1.526   2.464   0.498  1.1708  1.2081 -0.6879
  975SOL     OW 3059   4.375   1.503   1.432  0.0482  0.0436 -0.2972
  975SOL    HW1 3060   4.312   1.455   1.379 -0.3447 -1.9666  1.8305
  975SOL    HW2 3061   4.321   1.557   1.491  0.2184 -1.5240  1.3861
  976SOL     OW 3062   4.207   4.073   2.103 -0.0858  0.2705 -0.2059
  976SOL    HW1 3063   4.293   4.096   2.069 -0.6578  2.3614 -0.4072
  976SOL    HW2 3064   4.223   4.033   2.188  1.1125 -0.3074 -0.6868
  977SOL     OW 3065   4.461   3.983   2.234  0.1822 -0.1912  0.0225
  977SOL    HW1 3066   4.476   4.077   2.239 -1.4415  0.1843 -1.2126
  977SOL    HW2 3067   4.513   3.955   2.158  0.9652 -0.3838  0.6155
  978SOL     OW 3068   4.629   4.928   2.462 -0.2910  0.5515 -0.3801
  978SOL    HW1 3069   4.616   5.022   2.477 -0.2254  0.3860  0.8269
  978SOL    HW2 3070   4.641   4.892   2.550  0.0134 -0.5412 -0.8614
  979SOL     OW 3071   0.144   2.679   3.155 -0.6168  0.1882 -0.6557
  979SOL    HW1 3072   0.120   2.600   3.205  1.0727  0.6161  0.9092
  979SOL    HW2 3073   0.126   2.751   3.214  2.9712  0.6195  0.1030
  980SOL     OW 3074   1.649   2.824   2.137  0.6195  0.4321 -0.1622
  980SOL    HW1 3075   1.589   2.817   2.063  0.9947 -0.6025 -0.3840
  980SOL    HW2 3076   1.594   2.812   2.214  0.3121  0.9833 -0.2899
  981SOL     OW 3077   2.730   3.212   1.775  0.0422  0.2771  0.8429
  981SOL    HW1 3078   2.817   3.196   1.739  0.6336 -0.4549  2.5129
  981SOL    HW2 3079   2.737   3.188   1.867 -1.1114  3.0643  1.7697
  982SOL     OW 3080   4.591   4.989   0.258  0.2198  0.1635  0.0245
  982SOL    HW1 3081   4.510   4.946   0.287  0.7169  0.4115  1.8817
  982SOL    HW2 3082   4.646   4.992   0.336  0.6558  3.1386 -0.2829
  983SOL     OW 3083   1.008   2.222   2.027 -0.0709 -0.3294  0.3788
  983SOL    HW1 3084   1.048   2.200   2.111 -1.0949 -0.6668  0.7893
  983SOL    HW2 3085   0.983   2.138   1.989 -2.7685 -0.0717  1.3375
  984SOL     OW 3086   0.958   4.478   1.988 -0.1790 -0.4544  0.1779
  984SOL    HW1 3087   0.993   4.560   1.953 -1.2414 -0.7996 -1.8569
  984SOL    HW2 3088   0.893   4.506   2.052 -0.5817  0.3186 -0.5446
  985SOL     OW 3089  -0.024   2.010   3.228 -0.2795 -0.8058  0.0387
  985SOL    HW1 3090  -0.035   2.034   3.136 -0.4323 -0.5328  0.1289
  985SOL    HW2 3091   0.062   2.046   3.252 -1.3987  1.5238  0.7660
  986SOL     OW 3092   2.238   1.946   2.565  0.0146  0.3950 -0.1858
  986SOL    HW1 3093   2.183   2.018   2.594 -1.0570 -0.2284 -0.6363
  986SOL    HW2 3094   2.229   1.944   2.470  1.3639  0.7088 -0.3401
  987SOL     OW 3095   0.458   4.052   0.547 -0.0229  0.2772 -0.2996
  987SOL    HW1 3096   0.480   4.112   0.618  0.0909  1.3532 -1.2172
  987SOL    HW2 3097   0.384   4.002   0.580  1.6350 -1.1230  1.5947
  988SOL     OW 3098   0.263   4.489   2.132  0.0942  0.5998 -0.0713
  988SOL    HW1 3099   0.259   4.568   2.187 -2.7264 -0.1626  1.0065
  988SOL    HW2 3100   0.288   4.522   2.046 -0.2651  2.5754  0.5181
  989SOL     OW 3101   0.651   3.180   3.869 -0.5846  0.2243  0.4795
  989SOL    HW1 3102   0.717   3.122   3.831 -3.8922 -2.2351 -2.1381
  989SOL    HW2 3103   0.615   3.131   3.943 -0.0843  1.2291  1.4307
  990SOL     OW 3104   2.836   3.907   2.209 -0.8157 -0.1051 -0.1381
  990SOL    HW1 3105   2.783   3.840   2.252 -0.2458  0.2160  1.1137
  990SOL    HW2 3106   2.903   3.857   2.162 -1.4510 -0.4638 -0.6716
  991SOL     OW 3107   2.817   1.994   3.618 -0.3895 -0.6352  0.2383
  991SOL    HW1 3108   2.735   1.949   3.599 -0.3957 -1.9529  2.9137
  991SOL    HW2 3109   2.881   1.955   3.559 -0.4332 -4.2667  2.3107
  992SOL     OW 3110   4.146   3.976   2.980 -0.0350  0.1294  0.1945
  992SOL    HW1 3111   4.158   3.882   2.972  1.7204  0.2513  0.8934
  992SOL    HW2 3112   4.222   4.006   3.031  0.6674  2.2107 -1.8525
  993SOL     OW 3113   0.076   0.408   0.235 -0.8601 -0.2905 -0.0348
  993SOL    HW1 3114   0.029   0.336   0.193 -2.4861  0.2458  0.8032
  993SOL    HW2 3115   0.039   0.413   0.323  0.5097  0.4144  0.5229
  994SOL     OW 3116   0.383   2.473   0.600  0.2680  0.4789 -0.3195
  994SOL    HW1 3117   0.384   2.500   0.692 -1.4249  0.9741 -0.4113
  994SOL    HW2 3118   0.471   2.492   0.569  1.4691 -1.3644  1.6318
  995SOL     OW 3119   1.362   2.429   3.429 -0.3396 -0.2896 -0.6552
  995SOL    HW1 3120   1.396   2.340   3.440 -1.3415 -0.6790 -0.5177
  995SOL    HW2 3121   1.269   2.416   3.408 -0.5486  0.7286 -0.4118
  996SOL     OW 3122   0.880   3.460   3.482 -0.4505 -0.1588  0.2017
  996SOL    HW1 3123   0.825   3.538   3.475  2.5619  1.9916 -1.6795
  996SOL    HW2 3124   0.883   3.425   3.393  1.4334  0.0086  0.1564
  997SOL     OW 3125   1.649   4.854   4.852  0.4139  0.3783 -0.1088
  997SOL    HW1 3126   1.689   4.768   4.837 -1.4854 -0.5399 -0.1619
  997SOL    HW2 3127   1.589   4.865   4.779 -0.5439  1.0180  0.7512
  998SOL     OW 3128   1.661   2.464   3.538  0.0412  0.3486 -0.3359
  998SOL    HW1 3129   1.584   2.450   3.592  0.5663  2.9272  1.2270
  998SOL    HW2 3130   1.628   2.458   3.448 -1.5807 -0.3881  0.2599
  999SOL     OW 3131   0.756   4.141   0.243  0.2496 -0.6691 -0.2708
  999SOL    HW1 3132   0.774   4.230   0.211  0.3665 -0.3217  0.7125
  999SOL    HW2 3133   0.661   4.138   0.252  0.2539 -0.5859 -0.1820
 1000SOL     OW 3134   4.424   0.759   2.686  0.4943 -0.2186 -0.5167
 1000SOL    HW1 3135   4.458   0.751   2.775  1.5548 -0.7202 -0.9603
 1000SOL    HW2 3136   4.475   0.830   2.647 -0.9130  0.9626 -0.3106
 1001SOL     OW 3137   0.919   1.299   1.681  0.6589  0.2940  0.5376
 1001SOL    HW1 3138   0.876   1.345   1.610  0.9718  0.7859  0.6539
 1001SOL    HW2 3139   0.856   1.301   1.753  0.2823 -0.3405  0.2322
 1002SOL     OW 3140   1.481   3.472   4.702  0.0727  0.1053  0.1080
 1002SOL    HW1 3141   1.447   3.525   4.774  0.4970  0.1495  0.2820
 1002SOL    HW2 3142   1.404   3.434   4.660 -0.5566  3.3856 -2.0522
 1003SOL     OW 3143   0.082   3.255   2.841  0.3817  0.1934  0.3553
 1003SOL    HW1 3144   0.005   3.202   2.819  0.0118  0.7949  0.2064
 1003SOL    HW2 3145   0.067   3.283   2.931  0.5788  0.0487  0.4343
 1004SOL     OW 3146   3.509   3.058   1.574 -0.2084  0.1857 -0.3604
 1004SOL    HW1 3147   3.596   3.036   1.608  0.3260 -0.1155 -1.8379
 1004SOL    HW2 3148   3.505   3.013   1.490 -1.1960  1.4740 -1.0205
 1005SOL     OW 3149   2.823   4.787   1.259 -0.5017  0.3994 -0.3139
 1005SOL    HW1 3150   2.830   4.881   1.242 -0.5106  0.6038  0.7223
 1005SOL    HW2 3151   2.730   4.768   1.255 -0.4193  0.1912 -1.6679
 1006SOL     OW 3152   2.846   4.692   4.668 -0.1410  0.2595  0.5901
 1006SOL    HW1 3153   2.918   4.660   4.723 -1.0614 -2.1393  0.5123
 1006SOL    HW2 3154   2.837   4.626   4.599 -1.5433  1.2023 -0.1778
 1007SOL     OW 3155   1.339   3.166   3.859 -0.0646 -0.4323  0.0200
 1007SOL    HW1 3156   1.414   3.110   3.837  1.2918  0.5735  1.8097
 1007SOL    HW2 3157   1.325   3.150   3.953 -2.7431 -1.2854 -0.4401
 1008SOL     OW 3158   0.574   4.689   3.311 -0.3962  0.0405  0.4896
 1008SOL    HW1 3159   0.517   4.643   3.249 -1.6557  1.0611  0.8499
 1008SOL    HW2 3160   0.621   4.752   3.257  2.0907 -2.1848 -0.1902
 1009SOL     OW 3161   0.529   2.092   1.057 -0.0589  0.4965 -0.5769
 1009SOL    HW1 3162   0.488   2.060   1.137 -1.9171  1.0493 -1.2552
 1009SOL    HW2 3163   0.511   2.024   0.992 -0.3456  0.9798 -1.0102
 1010SOL     OW 3164   1.328   2.287   0.163  0.3154 -0.6356 -0.1736
 1010SOL    HW1 3165   1.364   2.203   0.132 -1.0065 -1.8273  1.3139
 1010SOL    HW2 3166   1.391   2.319   0.227  0.5537 -0.8040 -0.3244
 1011SOL     OW 3167   1.577   3.834   2.580 -0.2221 -0.4053  0.4448
 1011SOL    HW1 3168   1.510   3.896   2.608 -0.2036 -0.8042  1.4140
 1011SOL    HW2 3169   1.528   3.764   2.536 -0.2557  0.1892 -0.5041
 1012SOL     OW 3170   0.507   3.641   4.368 -1.1037 -0.1283 -0.5644
 1012SOL    HW1 3171   0.529   3.714   4.309 -1.5791  0.6087  0.1434
 1012SOL    HW2 3172   0.458   3.682   4.439 -0.3603 -0.9710  0.4643
 1013SOL     OW 3173   0.128   3.206   0.575  0.0141  0.4522  0.3270
 1013SOL    HW1 3174   0.050   3.261   0.577  0.3761  0.9908 -0.0535
 1013SOL    HW2 3175   0.199   3.266   0.550  0.6963  0.1511  1.4779
 1014SOL     OW 3176   0.278   4.719   2.457  0.5778  0.3215 -0.2124
 1014SOL    HW1 3177   0.304   4.733   2.548  0.0837  0.8203 -0.1500
 1014SOL    HW2 3178   0.329   4.783   2.408  0.0082  0.8117 -0.1667
 1015SOL     OW 3179   4.058   1.906   0.362  0.1668 -0.2312  0.1998
 1015SOL    HW1 3180   4.023   1.995   0.359 -0.3104 -0.4305 -1.7450
 1015SOL    HW2 3181   4.146   1.913   0.325  1.0307 -0.2389  2.1616
 1016SOL     OW 3182   1.243   4.622   1.526 -0.2267 -0.5637  0.1862
 1016SOL    HW1 3183   1.324   4.628   1.476  1.0701  0.3128  2.2658
 1016SOL    HW2 3184   1.221   4.713   1.548 -0.6511 -0.9217  1.3249
 1017SOL     OW 3185   2.712   2.519   0.572 -0.1827 -0.4056 -0.0413
 1017SOL    HW1 3186   2.693   2.554   0.485 -2.8663 -1.0770  0.1676
 1017SOL    HW2 3187   2.646   2.450   0.585 -0.0779 -0.1200  2.6406
 1018SOL     OW 3188   0.613   4.417   1.686 -0.0856  0.2398 -0.3019
 1018SOL    HW1 3189   0.580   4.346   1.740  0.3821  0.5334  0.3775
 1018SOL    HW2 3190   0.535   4.466   1.660 -0.1674  1.4330  1.9830
 1019SOL     OW 3191   4.444   3.070   1.421 -0.3466 -0.5723 -0.5897
 1019SOL    HW1 3192   4.416   3.090   1.331 -0.7354  1.1366 -0.1244
 1019SOL    HW2 3193   4.506   2.998   1.411 -0.0604 -0.1404 -2.2904
 1020SOL     OW 3194   4.650   1.687   4.693 -0.0385 -0.5497  0.1029
 1020SOL    HW1 3195   4.646   1.693   4.788 -1.1083 -0.4909  0.0608
 1020SOL    HW2 3196   4.744   1.687   4.673  0.1959 -0.7122  1.1596
 1021SOL     OW 3197   3.888   4.751   4.217 -0.4909  0.4120  0.4196
 1021SOL    HW1 3198   3.866   4.822   4.277 -0.7398  2.3882 -1.9009
 1021SOL    HW2 3199   3.973   4.776   4.180 -0.4588 -0.6330 -0.2689
 1022SOL     OW 3200   0.751   4.662   1.280  0.3270  0.1664 -0.1827
 1022SOL    HW1 3201   0.800   4.625   1.206 -0.1288 -0.0718 -0.3670
 1022SOL    HW2 3202   0.761   4.597   1.350  0.3559  0.1622 -0.1905
 1023SOL     OW 3203   4.515   3.756   1.436 -0.0993  0.0915  0.3297
 1023SOL    HW1 3204   4.494   3.676   1.485  0.6199  0.4124  1.1769
 1023SOL    HW2 3205   4.498   3.827   1.498  0.8329  0.4994  0.1298
 1024SOL     OW 3206   1.919   3.781   3.117  0.1409 -0.9698 -0.2456
 1024SOL    HW1 3207   1.892   3.736   3.037 -1.8398  0.9222 -0.7553
 1024SOL    HW2 3208   1.946   3.712   3.177  1.8328 -2.4429 -2.5606
 1025SOL     OW 3209   3.522   4.673   4.835 -0.2990 -0.0994 -0.0952
 1025SOL    HW1 3210   3.555   4.640   4.752 -1.1515  1.5483 -1.1486
 1025SOL    HW2 3211   3.435   4.635   4.844 -0.9764  1.1774 -0.9377
 1026SOL     OW 3212   3.856   2.503   1.232  0.5768  0.1042 -0.5943
 1026SOL    HW1 3213   3.825   2.527   1.144 -1.8623 -0.8086 -0.0565
 1026SOL    HW2 3214   3.912   2.426   1.217  0.1318 -0.0845 -1.3539
 1027SOL     OW 3215   3.508   0.822   0.957 -0.5063 -0.1533 -0.4489
 1027SOL    HW1 3216   3.456   0.867   1.024 -0.9313 -0.2031 -0.7383
 1027SOL    HW2 3217   3.501   0.878   0.880  1.8962  1.1255  0.1688
 1028SOL     OW 3218   0.362   0.462   0.164  0.9218 -0.3550 -0.7200
 1028SOL    HW1 3219   0.275   0.423   0.167  0.9968 -0.4948  0.9755
 1028SOL    HW2 3220   0.420   0.390   0.191  1.4383  0.0173 -0.8379
 1029SOL     OW 3221   4.657   3.745   4.124 -0.6713 -0.2712 -0.1788
 1029SOL    HW1 3222   4.630   3.814   4.184  2.0118  0.9397 -0.1961
 1029SOL    HW2 3223   4.595   3.749   4.052 -0.7086  2.0387 -0.0858
 1030SOL     OW 3224   3.629   3.761   0.601  0.7073  0.4770  0.6037
 1030SOL    HW1 3225   3.672   3.838   0.564  0.8806 -0.0716 -0.3732
 1030SOL    HW2 3226   3.656   3.689   0.544 -0.9057 -0.0139  0.3829
 1031SOL     OW 3227   4.037   0.825   4.420  0.1059 -0.3321 -0.1932
 1031SOL    HW1 3228   4.131   0.837   4.429 -0.0939  1.4532 -0.2279
 1031SOL    HW2 3229   3.998   0.874   4.492 -0.8943  2.0708 -2.1919
 1032SOL     OW 3230   2.949   3.355   4.409 -0.2005 -0.3351 -0.0293
 1032SOL    HW1 3231   3.039   3.378   4.388 -0.7112  0.5753 -1.3429
 1032SOL    HW2 3232   2.941   3.374   4.503  0.5016  1.1618 -0.2525
 1033SOL     OW 3233   1.646   0.632   0.963 -0.1188 -0.4780 -0.3433
 1033SOL    HW1 3234   1.675   0.629   1.054  1.9630  0.0039 -0.9426
 1033SOL    HW2 3235   1.593   0.711   0.957  1.9535  1.0128 -0.1081
 1034SOL     OW 3236   0.384   4.672   4.594  0.4981 -0.4966  0.9046
 1034SOL    HW1 3237   0.359   4.743   4.653  2.2207 -0.6941  1.9184
 1034SOL    HW2 3238   0.421   4.717   4.518 -3.0035 -0.1731 -0.8291
 1035SOL     OW 3239   2.898   3.276   4.070 -0.4517  0.3437  0.3976
 1035SOL    HW1 3240   2.959   3.332   4.118 -0.9127  0.5764  0.7283
 1035SOL    HW2 3241   2.942   3.258   3.987  0.9343 -1.1540  1.4002
 1036SOL     OW 3242   0.849   1.245   1.204  0.5363 -0.5731  0.2265
 1036SOL    HW1 3243   0.834   1.201   1.288 -3.7542 -0.9091 -0.4946
 1036SOL    HW2 3244   0.764   1.285   1.183  1.9416  0.9625 -3.1650
 1037SOL     OW 3245   2.759   1.237   2.557 -0.4553 -0.2150 -0.8858
 1037SOL    HW1 3246   2.666   1.240   2.576 -0.2230 -0.7803  0.4425
 1037SOL    HW2 3247   2.775   1.146   2.529 -0.6102  0.3470 -2.9793
 1038SOL     OW 3248   1.256   2.307   4.581 -0.0257  0.5792  0.5195
 1038SOL    HW1 3249   1.280   2.223   4.541  1.3849  0.7196  0.9979
 1038SOL    HW2 3250   1.164   2.320   4.557 -1.1462 -2.3810  2.6207
 1039SOL     OW 3251   0.086   0.688   4.274 -0.3209 -0.0725 -0.1277
 1039SOL    HW1 3252   0.162   0.746   4.275  0.5952 -1.1682 -1.4406
 1039SOL    HW2 3253   0.016   0.740   4.236  0.4499  0.2267 -1.1840
 1040SOL     OW 3254   0.973   1.069   0.308 -0.4255  0.2992 -0.3528
 1040SOL    HW1 3255   1.011   1.138   0.254  1.2578 -0.8468 -0.7037
 1040SOL    HW2 3256   1.017   1.078   0.393  0.0130 -0.4804 -0.4845
 1041SOL     OW 3257   3.825   0.882   3.080 -0.6988 -0.7665 -0.1212
 1041SOL    HW1 3258   3.761   0.946   3.048 -0.6611 -0.7962 -0.2601
 1041SOL    HW2 3259   3.773   0.807   3.108 -0.8203 -0.2527  1.0729
 1042SOL     OW 3260   2.990   2.400   2.221  0.6907  0.4248  0.2644
 1042SOL    HW1 3261   2.966   2.388   2.129  0.4334 -0.0607  0.3897
 1042SOL    HW2 3262   2.912   2.372   2.270 -0.8189  4.4484  0.6039
 1043SOL     OW 3263   0.801   2.877   0.419 -0.1321  0.2603 -0.0300
 1043SOL    HW1 3264   0.833   2.967   0.426 -0.7819  0.4241  0.9663
 1043SOL    HW2 3265   0.828   2.850   0.331  2.3603  0.5105  0.5840
 1044SOL     OW 3266   2.060   2.340   1.708  0.0171 -0.7137 -0.1706
 1044SOL    HW1 3267   2.079   2.432   1.723  1.2140 -1.2655  2.1253
 1044SOL    HW2 3268   2.119   2.313   1.638 -0.9175  0.4071 -1.4350
 1045SOL     OW 3269   0.108   3.688   0.262  0.0932  0.3702 -0.1383
 1045SOL    HW1 3270   0.140   3.777   0.249 -0.1807  0.6473  0.9509
 1045SOL    HW2 3271   0.014   3.693   0.245  0.4703 -0.3520 -2.9082
 1046SOL     OW 3272   2.480   3.772   3.601  0.0202  0.5854 -0.2083
 1046SOL    HW1 3273   2.531   3.702   3.559 -0.2029  0.2857  0.0172
 1046SOL    HW2 3274   2.398   3.731   3.625 -0.6192  1.2494 -1.2062
 1047SOL     OW 3275   1.817   2.361   2.536 -0.8628  0.1231 -0.0526
 1047SOL    HW1 3276   1.786   2.369   2.626 -2.1600  1.2717 -0.5705
 1047SOL    HW2 3277   1.876   2.436   2.524 -2.2809  1.1666 -0.7462
 1048SOL     OW 3278   2.850   0.274   4.514 -0.5414  0.1752 -0.3840
 1048SOL    HW1 3279   2.819   0.293   4.426  0.7976  1.1063 -0.6861
 1048SOL    HW2 3280   2.940   0.244   4.502 -0.2041  0.6964  0.6930
 1049SOL     OW 3281   1.984   3.530   2.121  0.2122 -0.5664 -0.6497
 1049SOL    HW1 3282   1.906   3.546   2.069  0.9616  1.4130 -1.2662
 1049SOL    HW2 3283   1.951   3.492   2.203 -1.4530  0.6355 -0.7036
 1050SOL     OW 3284   2.639   2.211   2.787 -0.5036 -0.1620  0.7136
 1050SOL    HW1 3285   2.637   2.269   2.863 -0.0028  1.4909 -0.4785
 1050SOL    HW2 3286   2.560   2.233   2.737 -2.2113 -2.9792  1.8875
 1051SOL     OW 3287   0.113   0.476   2.896 -0.3023  0.4307 -0.1114
 1051SOL    HW1 3288   0.191   0.489   2.950  1.6756 -2.0190 -2.1633
 1051SOL    HW2 3289   0.140   0.501   2.808 -2.2924  0.7866 -0.6692
 1052SOL     OW 3290   3.070   0.591   3.802 -0.0063  0.4757  0.3511
 1052SOL    HW1 3291   3.021   0.511   3.820 -0.0702  0.5692  0.5904
 1052SOL    HW2 3292   3.034   0.624   3.720  0.1612  0.1476  0.1437
 1053SOL     OW 3293   1.700   4.934   4.500 -0.2744  0.2967 -0.0091
 1053SOL    HW1 3294   1.728   5.007   4.556  1.4045 -0.6327  0.4168
 1053SOL    HW2 3295   1.623   4.968   4.454  0.9221  2.6553 -0.4398
 1054SOL     OW 3296   1.493   2.961   1.523  0.2733  0.5099  0.0867
 1054SOL    HW1 3297   1.513   3.017   1.597  0.0593  1.4338 -0.5412
 1054SOL    HW2 3298   1.464   3.021   1.454 -2.0541 -0.5440  0.0788
 1055SOL     OW 3299   3.514   4.622   3.708  0.4374 -0.2602 -0.8911
 1055SOL    HW1 3300   3.450   4.587   3.647 -1.0495  2.5463 -1.0921
 1055SOL    HW2 3301   3.575   4.672   3.653  0.0699  0.8947 -0.2704
 1056SOL     OW 3302   0.675   0.037   1.460  0.5012  0.2935 -0.0223
 1056SOL    HW1 3303   0.716   0.122   1.480 -0.4292  0.9890 -0.9333
 1056SOL    HW2 3304   0.647   0.003   1.545 -1.2354  2.0467  0.1800
 1057SOL     OW 3305   4.898   2.109   2.954 -0.2987  0.1420 -0.7653
 1057SOL    HW1 3306   4.913   2.201   2.933  2.1878 -0.0655 -0.2455
 1057SOL    HW2 3307   4.973   2.063   2.915 -0.5647 -1.4375  0.4477
 1058SOL     OW 3308   1.903   3.895   1.936 -0.1683 -0.4367  0.2234
 1058SOL    HW1 3309   1.878   3.987   1.947 -1.5620 -0.9664  2.0792
 1058SOL    HW2 3310   1.948   3.872   2.017 -1.9131 -1.9551  0.8571
 1059SOL     OW 3311   0.781   2.725   0.624  0.0942 -0.5930 -0.0022
 1059SOL    HW1 3312   0.733   2.780   0.686  0.2192 -1.0812  0.5305
 1059SOL    HW2 3313   0.792   2.781   0.547  2.0276  0.8680  1.2462
 1060SOL     OW 3314   3.198   0.360   1.956  0.1805 -0.1219  0.5282
 1060SOL    HW1 3315   3.129   0.337   1.894  0.6549 -0.3877  0.0858
 1060SOL    HW2 3316   3.268   0.296   1.939  1.5665  1.6127 -0.7464
 1061SOL     OW 3317   2.306   4.238   2.711  0.8711  0.0865  0.1231
 1061SOL    HW1 3318   2.272   4.251   2.800 -0.6582 -0.9115 -0.2861
 1061SOL    HW2 3319   2.269   4.154   2.683  0.5989  0.7947 -1.7807
 1062SOL     OW 3320   0.371   0.388   4.907 -0.1260 -0.2484  0.0046
 1062SOL    HW1 3321   0.324   0.390   4.990 -0.6450 -0.0196 -0.2870
 1062SOL    HW2 3322   0.461   0.365   4.930 -0.6978 -2.3042  0.4462
 1063SOL     OW 3323   1.375   0.242   2.457  0.5598  0.7574  0.4858
 1063SOL    HW1 3324   1.429   0.284   2.524 -0.1956 -0.8403  2.2243
 1063SOL    HW2 3325   1.398   0.149   2.462 -0.5357  0.3986 -0.4917
 1064SOL     OW 3326   3.994   3.423   0.102 -0.2741  0.0789  0.6690
 1064SOL    HW1 3327   3.960   3.445   0.015  1.8792  0.1252 -0.2203
 1064SOL    HW2 3328   4.059   3.355   0.085  0.2295  0.1423  2.2543
 1065SOL     OW 3329   2.631   4.392   0.209 -0.3421 -0.1182 -0.5094
 1065SOL    HW1 3330   2.540   4.419   0.198 -0.0611  2.6186  2.3723
 1065SOL    HW2 3331   2.625   4.313   0.264 -0.9897  0.3592  0.1266
 1066SOL     OW 3332   4.264   0.053   2.775  0.3305  0.4384 -0.2247
 1066SOL    HW1 3333   4.267   0.117   2.704 -2.7336  1.2628  0.2600
 1066SOL    HW2 3334   4.308   0.097   2.848 -0.3681  1.3851 -0.3568
 1067SOL     OW 3335   0.802   3.713   0.235 -0.0628  0.0348 -0.1388
 1067SOL    HW1 3336   0.832   3.801   0.258  0.2985 -0.3303  0.8322
 1067SOL    HW2 3337   0.767   3.678   0.317  0.8210 -1.1347 -0.2355
 1068SOL     OW 3338   3.919   2.755   0.074  0.2509 -0.6592  0.5812
 1068SOL    HW1 3339   3.996   2.700   0.065 -0.0516 -0.8008 -1.5969
 1068SOL    HW2 3340   3.944   2.839   0.037 -0.7298 -0.8253 -0.5142
 1069SOL     OW 3341   4.744   3.284   4.358 -0.1758 -0.6825 -0.6250
 1069SOL    HW1 3342   4.681   3.289   4.430 -0.0462 -0.1215 -0.5448
 1069SOL    HW2 3343   4.829   3.280   4.402 -0.0242  0.7385 -0.7362
 1070SOL     OW 3344   0.370   2.211   0.075 -0.1808 -0.2262  0.2771
 1070SOL    HW1 3345   0.308   2.275   0.110  1.0284  0.6424  0.9210
 1070SOL    HW2 3346   0.388   2.241  -0.014 -2.7480 -2.0622 -1.0010
 1071SOL     OW 3347   3.768   4.875   2.335 -0.3451 -0.2698  0.2162
 1071SOL    HW1 3348   3.824   4.801   2.360  2.6006  1.7875  0.1699
 1071SOL    HW2 3349   3.741   4.914   2.417 -0.9544 -0.6758  0.2206
 1072SOL     OW 3350   3.266   1.001   3.573 -0.4283  0.1181  0.0426
 1072SOL    HW1 3351   3.334   1.064   3.549 -1.2583  0.4968 -1.4291
 1072SOL    HW2 3352   3.239   1.028   3.661 -0.9292  2.0190 -0.6249
 1073SOL     OW 3353   0.765   1.496   4.789  0.2225  0.0100  0.3519
 1073SOL    HW1 3354   0.806   1.473   4.705 -1.4470 -0.2048 -0.4299
 1073SOL    HW2 3355   0.672   1.506   4.769  0.0235  1.6251  1.8596
 1074SOL     OW 3356   3.221   4.082   1.291 -0.3646 -0.6814 -0.1507
 1074SOL    HW1 3357   3.248   4.171   1.271 -0.3912 -0.6281  0.0498
 1074SOL    HW2 3358   3.125   4.085   1.291 -0.3877 -0.9425 -1.1997
 1075SOL     OW 3359   3.885   5.028   4.940  0.1908  0.6309  0.1461
 1075SOL    HW1 3360   3.963   5.025   4.994  0.6427  2.1772 -0.3598
 1075SOL    HW2 3361   3.871   4.937   4.912  2.8584  0.5233 -1.1864
 1076SOL     OW 3362   4.850   2.885   2.311  0.5049  0.7499  0.1306
 1076SOL    HW1 3363   4.807   2.804   2.284  1.5158  0.3437 -0.3039
 1076SOL    HW2 3364   4.853   2.939   2.232 -0.1999  1.2440  0.4264
 1077SOL     OW 3365   0.337   0.454   2.352 -0.3019  0.4173 -0.2853
 1077SOL    HW1 3366   0.343   0.397   2.428 -0.9837 -0.0204 -0.5549
 1077SOL    HW2 3367   0.428   0.472   2.328 -0.0876  0.2518  0.3961
 1078SOL     OW 3368   4.936   0.239   0.119 -0.0922 -0.2199  0.4108
 1078SOL    HW1 3369   4.944   0.174   0.189 -3.0305  0.3861  1.4628
 1078SOL    HW2 3370   4.923   0.187   0.040 -0.5352 -0.9370  0.9405
 1079SOL     OW 3371   0.525   3.776   0.370 -0.6361  0.2088  0.6539
 1079SOL    HW1 3372   0.463   3.813   0.308 -1.4157  0.2926  1.4563
 1079SOL    HW2 3373   0.545   3.848   0.430  0.5804  0.3077  0.1635
 1080SOL     OW 3374   1.145   2.507   1.857  0.0339  0.4753 -0.3456
 1080SOL    HW1 3375   1.068   2.544   1.813 -0.7983 -0.7736  0.0094
 1080SOL    HW2 3376   1.117   2.420   1.886  0.3885  1.3559  2.9901
 1081SOL     OW 3377   1.556   2.149   0.340 -0.0734 -0.2189 -0.3153
 1081SOL    HW1 3378   1.475   2.116   0.301  1.3186 -0.9255 -2.8129
 1081SOL    HW2 3379   1.537   2.240   0.360 -0.7669  0.3604 -3.2306
 1082SOL     OW 3380   0.258   0.156   4.793 -0.6004  0.5179  0.0574
 1082SOL    HW1 3381   0.181   0.208   4.813  0.4229  1.1461  2.7167
 1082SOL    HW2 3382   0.331   0.204   4.830  0.7966 -1.2326 -0.2542
 1083SOL     OW 3383   1.422   2.972   0.834 -0.1512 -0.3924  0.0842
 1083SOL    HW1 3384   1.410   3.065   0.853 -1.9888 -0.5839  0.0050
 1083SOL    HW2 3385   1.486   2.970   0.762  0.3935  0.7563  0.5106
 1084SOL     OW 3386   4.526   1.915   2.961 -0.5953 -0.6876 -0.1034
 1084SOL    HW1 3387   4.492   1.825   2.961  2.2309 -1.9003  1.3550
 1084SOL    HW2 3388   4.617   1.906   2.935  0.2234  1.5402  1.6880
 1085SOL     OW 3389   1.636   1.747   3.889  0.5579 -0.5877 -0.0885
 1085SOL    HW1 3390   1.689   1.736   3.810  0.2800 -2.6472 -0.0578
 1085SOL    HW2 3391   1.624   1.658   3.921  1.5503  0.2543  2.9081
 1086SOL     OW 3392   0.930   2.801   3.307  0.5749  0.0271 -0.0057
 1086SOL    HW1 3393   0.961   2.855   3.378 -0.2529  2.6339 -1.5010
 1086SOL    HW2 3394   1.009   2.777   3.258  0.8060  1.7763 -0.5448
 1087SOL     OW 3395   4.041   1.995   2.889  0.1267 -0.2580  0.2809
 1087SOL    HW1 3396   4.124   2.011   2.844 -1.7988 -0.6577 -3.8981
 1087SOL    HW2 3397   4.042   1.901   2.907  0.7089 -0.1920  0.6331
 1088SOL     OW 3398   0.266   4.017   1.438  0.7335  0.1188  0.4256
 1088SOL    HW1 3399   0.333   4.073   1.478 -0.7241  0.9433  1.7664
 1088SOL    HW2 3400   0.238   3.958   1.508 -0.3902  0.2080  0.0682
 1089SOL     OW 3401   2.982   1.987   3.821 -0.1953 -0.5292  0.0064
 1089SOL    HW1 3402   2.946   2.043   3.890  1.5831  2.3275 -1.1719
 1089SOL    HW2 3403   2.910   1.975   3.760 -0.9055 -0.3513  0.7952
 1090SOL     OW 3404   2.098   1.329   3.821  0.0766  0.3283  0.5161
 1090SOL    HW1 3405   2.178   1.377   3.800 -0.8147  1.1507 -1.1618
 1090SOL    HW2 3406   2.059   1.378   3.893  0.9354  0.0595  1.1806
 1091SOL     OW 3407   0.029   3.723   3.656 -0.2988 -0.1909 -0.3008
 1091SOL    HW1 3408   0.098   3.663   3.626  1.2944  2.3604 -2.1597
 1091SOL    HW2 3409   0.077   3.793   3.700 -1.8780  0.8352 -0.1400
 1092SOL     OW 3410   2.826   0.417   1.856 -0.4989  0.3904  0.4063
 1092SOL    HW1 3411   2.882   0.494   1.863  1.1842 -0.7012 -0.3838
 1092SOL    HW2 3412   2.774   0.432   1.777 -1.1148  1.2512  0.9535
 1093SOL     OW 3413   1.832   2.489   0.263  0.5690  0.3491  0.4731
 1093SOL    HW1 3414   1.792   2.512   0.347  0.2570 -1.8041  0.9544
 1093SOL    HW2 3415   1.896   2.559   0.248 -0.0020  1.2711  2.0468
 1094SOL     OW 3416   0.705   1.354   0.908 -0.0200 -0.1993  0.1787
 1094SOL    HW1 3417   0.700   1.449   0.900 -0.7324 -0.3610 -2.4139
 1094SOL    HW2 3418   0.646   1.333   0.980 -0.2892  1.2869  0.4263
 1095SOL     OW 3419   3.777   1.493   1.075 -0.3647 -0.3651 -0.0483
 1095SOL    HW1 3420   3.774   1.411   1.124 -3.0565  0.7325  1.8851
 1095SOL    HW2 3421   3.860   1.532   1.098  0.2911 -1.8335  0.1904
 1096SOL     OW 3422   1.624   4.717   1.692 -0.1450  0.5018  0.0534
 1096SOL    HW1 3423   1.547   4.665   1.716 -1.2176  1.6292 -0.8497
 1096SOL    HW2 3424   1.596   4.768   1.616  0.8753  2.3274  0.8371
 1097SOL     OW 3425   4.991   3.256   5.022 -0.6239 -0.5029 -0.0173
 1097SOL    HW1 3426   4.936   3.281   5.096  2.2972 -0.2101  2.2130
 1097SOL    HW2 3427   4.949   3.299   4.947 -2.0107  1.8401  1.9275
 1098SOL     OW 3428   3.426   0.114   0.380 -0.7935 -0.5627 -0.4336
 1098SOL    HW1 3429   3.506   0.077   0.419  0.6401  2.0958 -0.5587
 1098SOL    HW2 3430   3.459   0.180   0.318 -3.0405  1.6035  0.5102
 1099SOL     OW 3431   4.558   0.325   4.836  0.1360  0.2302  0.6477
 1099SOL    HW1 3432   4.607   0.270   4.774 -1.0711  0.3079 -0.4181
 1099SOL    HW2 3433   4.554   0.411   4.794 -0.6377  0.3014  0.8531
 1100SOL     OW 3434   4.208   0.253   0.518 -0.4516  0.2542  0.0277
 1100SOL    HW1 3435   4.166   0.187   0.574 -1.9509  0.8893 -0.3082
 1100SOL    HW2 3436   4.160   0.334   0.536 -1.1516  0.4322 -2.3371
 1101SOL     OW 3437   0.996   0.092   1.518 -0.3451 -0.5588 -0.8163
 1101SOL    HW1 3438   1.089   0.116   1.524 -0.8320  1.7237 -1.2776
 1101SOL    HW2 3439   0.973   0.111   1.427 -1.0883 -1.9270 -0.9392
 1102SOL     OW 3440   4.307   4.676   0.071 -0.2260  0.6181  0.3499
 1102SOL    HW1 3441   4.363   4.727   0.012  1.0886 -2.1669 -1.0186
 1102SOL    HW2 3442   4.222   4.676   0.028  0.7057 -1.3616 -1.7376
 1103SOL     OW 3443   4.556   2.941   1.695  0.2466 -0.3660  0.0484
 1103SOL    HW1 3444   4.576   3.035   1.690 -0.0758 -0.2057  1.4542
 1103SOL    HW2 3445   4.481   2.936   1.754  1.1345 -1.6081  1.1275
 1104SOL     OW 3446   0.590   4.368   4.421 -0.1222 -0.2475 -0.1945
 1104SOL    HW1 3447   0.603   4.353   4.515 -1.0439  0.2929  0.0392
 1104SOL    HW2 3448   0.510   4.321   4.400 -0.3567  0.2822 -0.5274
 1105SOL     OW 3449   1.818   2.722   0.559 -0.1396 -0.2241 -0.6984
 1105SOL    HW1 3450   1.882   2.744   0.627  1.4880 -1.3857 -1.7703
 1105SOL    HW2 3451   1.829   2.790   0.492 -1.3333  0.5865 -0.1181
 1106SOL     OW 3452   2.744   4.863   0.404  0.2439 -0.6532  0.2165
 1106SOL    HW1 3453   2.768   4.823   0.487  1.0671 -1.1753 -0.2612
 1106SOL    HW2 3454   2.655   4.830   0.386 -0.1277 -0.1592  1.1090
 1107SOL     OW 3455   0.323   3.990   3.494  0.1103 -0.5043 -0.4287
 1107SOL    HW1 3456   0.296   3.916   3.439  0.3198  0.0755 -1.3368
 1107SOL    HW2 3457   0.305   3.962   3.583 -3.3484 -0.2680 -0.9045
 1108SOL     OW 3458   1.207   1.548   1.539 -0.7910 -0.3169  0.2573
 1108SOL    HW1 3459   1.284   1.520   1.489  0.1771  0.9616  0.9953
 1108SOL    HW2 3460   1.135   1.499   1.499 -0.2177  1.1783 -2.9016
 1109SOL     OW 3461   1.609   3.404   4.993 -0.1600 -0.0954  0.6966
 1109SOL    HW1 3462   1.624   3.377   5.084  1.9148 -0.3356  0.3200
 1109SOL    HW2 3463   1.668   3.478   4.980 -0.6250  0.0951 -0.4081
 1110SOL     OW 3464   3.665   1.734   0.980  0.1456 -0.3995 -0.2695
 1110SOL    HW1 3465   3.652   1.649   1.023  1.3568 -1.3253 -1.6268
 1110SOL    HW2 3466   3.736   1.718   0.917  0.8223  1.7802 -0.1362
 1111SOL     OW 3467   0.211   0.337   3.731 -0.1440 -0.4408  0.6431
 1111SOL    HW1 3468   0.258   0.258   3.759 -0.8930 -0.7647  1.0047
 1111SOL    HW2 3469   0.121   0.323   3.759 -0.6721 -0.2366 -0.8913
 1112SOL     OW 3470   0.640   2.351   0.999 -0.1277 -0.3736  0.2608
 1112SOL    HW1 3471   0.601   2.352   0.911 -0.3110 -1.0110  0.3309
 1112SOL    HW2 3472   0.603   2.273   1.041  0.8212 -0.6954  0.5139
 1113SOL     OW 3473   4.827   1.399   3.001  0.3021  0.0055  0.8519
 1113SOL    HW1 3474   4.795   1.477   3.046  0.8458  0.0477  1.1753
 1113SOL    HW2 3475   4.894   1.431   2.942 -0.1470 -0.1016  0.2773
 1114SOL     OW 3476   1.588   0.440   3.900  0.1168  0.3535 -0.1937
 1114SOL    HW1 3477   1.623   0.357   3.932  2.1541  1.7409  1.4418
 1114SOL    HW2 3478   1.494   0.426   3.896  0.0586 -1.1153  3.0546
 1115SOL     OW 3479   2.375   4.792   2.947  0.1522  0.7484 -0.2116
 1115SOL    HW1 3480   2.364   4.762   2.857  1.4551  1.6763 -0.7221
 1115SOL    HW2 3481   2.307   4.747   2.996  0.1249 -0.6369 -1.4579
 1116SOL     OW 3482   1.213   4.823   2.953  0.2619 -0.4613  0.2446
 1116SOL    HW1 3483   1.273   4.762   2.997  0.3499  0.3755  1.3180
 1116SOL    HW2 3484   1.250   4.909   2.971 -0.6607 -0.0034 -0.0341
 1117SOL     OW 3485   1.790   3.954   1.153 -0.4039 -0.4595 -0.6363
 1117SOL    HW1 3486   1.809   4.047   1.135  1.3427 -0.5990  0.3365
 1117SOL    HW2 3487   1.863   3.907   1.113 -0.6521 -1.3295 -0.0803
 1118SOL     OW 3488   0.968   0.915   0.843  0.5200  0.0085 -0.1872
 1118SOL    HW1 3489   0.995   0.985   0.903 -0.7640 -0.3440  0.8654
 1118SOL    HW2 3490   0.888   0.948   0.803  1.4449  0.2970 -1.8671
 1119SOL     OW 3491   1.411   3.849   4.122  0.3476  0.4107 -0.2284
 1119SOL    HW1 3492   1.367   3.932   4.105  0.8956  1.3120  2.4461
 1119SOL    HW2 3493   1.351   3.800   4.178  0.1657 -0.9296 -1.5149
 1120SOL     OW 3494   3.743   1.971   3.661  0.1812 -0.3149 -0.6479
 1120SOL    HW1 3495   3.683   1.903   3.631  1.4672 -1.2270 -1.2334
 1120SOL    HW2 3496   3.799   1.989   3.585  1.0906  0.0079  0.0765
 1121SOL     OW 3497   4.470   1.651   4.119  0.7779  0.0981 -0.0190
 1121SOL    HW1 3498   4.513   1.720   4.069  1.1919  0.7772  1.2216
 1121SOL    HW2 3499   4.466   1.686   4.209  1.3238 -1.6174  0.7140
 1122SOL     OW 3500   4.902   2.189   4.245  0.3561  0.0606  0.0249
 1122SOL    HW1 3501   4.946   2.141   4.176  0.2028 -0.3070  0.1792
 1122SOL    HW2 3502   4.816   2.210   4.209 -0.1162 -1.0384  0.4679
 1123SOL     OW 3503   3.772   1.075   2.743 -0.3412  0.3609  0.5977
 1123SOL    HW1 3504   3.811   1.125   2.671 -0.9560 -1.9716 -1.5201
 1123SOL    HW2 3505   3.728   1.141   2.797 -0.8214  2.1719 -1.8186
 1124SOL     OW 3506   1.447   0.358   2.223 -0.2583  0.3950 -0.6284
 1124SOL    HW1 3507   1.417   0.307   2.299 -0.3105  2.2710  0.6800
 1124SOL    HW2 3508   1.367   0.381   2.177 -0.3540  0.4495 -0.4381
 1125SOL     OW 3509   3.515   4.102   4.743 -0.7030  0.0095  0.4000
 1125SOL    HW1 3510   3.420   4.103   4.756 -0.4352 -1.1002  3.3289
 1125SOL    HW2 3511   3.547   4.172   4.801  0.3777 -1.0078  1.0685
 1126SOL     OW 3512   3.744   0.737   1.037 -0.1697 -0.1286 -0.4893
 1126SOL    HW1 3513   3.755   0.643   1.025  0.6194 -0.1502  0.3032
 1126SOL    HW2 3514   3.658   0.757   0.999  0.7882 -0.6878 -3.1523
 1127SOL     OW 3515   0.878   0.886   3.077 -0.3675 -0.3388 -0.1852
 1127SOL    HW1 3516   0.885   0.945   3.152 -1.3087  0.6226 -0.7998
 1127SOL    HW2 3517   0.958   0.901   3.027 -0.1194 -0.3577  0.2065
 1128SOL     OW 3518   4.001   3.430   1.532 -0.1053 -0.5425 -0.3862
 1128SOL    HW1 3519   4.081   3.446   1.581  0.7612  2.2953 -2.5177
 1128SOL    HW2 3520   3.936   3.488   1.572  0.1081  0.3797 -1.3321
 1129SOL     OW 3521   2.863   3.515   3.312 -0.8902 -0.0948  1.1484
 1129SOL    HW1 3522   2.895   3.544   3.227 -0.9375 -4.1551 -0.5227
 1129SOL    HW2 3523   2.932   3.457   3.345 -1.8656 -0.4024  2.7785
 1130SOL     OW 3524   1.791   1.675   4.528 -0.2484 -0.4675 -0.3940
 1130SOL    HW1 3525   1.751   1.605   4.581  1.7218 -2.6299 -1.6152
 1130SOL    HW2 3526   1.837   1.629   4.458  1.5640  2.0620 -0.9799
 1131SOL     OW 3527   1.199   0.945   2.160 -0.3331  0.8332  0.6568
 1131SOL    HW1 3528   1.233   0.972   2.245  0.1423 -1.1970  1.1748
 1131SOL    HW2 3529   1.267   0.968   2.098  0.6037 -0.2182  1.2447
 1132SOL     OW 3530   3.929   2.248   1.679  0.3173  0.5894  0.2544
 1132SOL    HW1 3531   3.958   2.337   1.696 -0.3380  1.2693 -1.8837
 1132SOL    HW2 3532   3.835   2.249   1.698  0.2289  0.4770 -0.1603
 1133SOL     OW 3533   1.138   1.227   4.392  0.2085  0.2006 -0.4040
 1133SOL    HW1 3534   1.082   1.299   4.364  0.9508  0.1374 -2.1954
 1133SOL    HW2 3535   1.079   1.151   4.393  0.3015 -0.0156 -3.0022
 1134SOL     OW 3536   0.945   4.091   0.643 -0.1253 -0.0024 -0.3665
 1134SOL    HW1 3537   0.935   4.106   0.737  2.3682  0.1282 -0.0609
 1134SOL    HW2 3538   0.994   4.009   0.637  1.9960  1.2547 -1.4051
 1135SOL     OW 3539   4.448   3.819   0.691 -0.9543  0.1757 -0.1503
 1135SOL    HW1 3540   4.491   3.869   0.623  1.2670  0.7712  1.5851
 1135SOL    HW2 3541   4.442   3.730   0.657  2.5528 -0.1594 -0.1983
 1136SOL     OW 3542   1.655   2.304   0.739 -0.3065 -0.7651  0.9813
 1136SOL    HW1 3543   1.690   2.372   0.797  0.5749  0.7129 -1.1513
 1136SOL    HW2 3544   1.720   2.297   0.669 -2.8763  0.0385 -1.6640
 1137SOL     OW 3545   1.373   3.156   0.583 -0.0910 -0.5550  0.7402
 1137SOL    HW1 3546   1.393   3.187   0.495  0.8106  0.0482  1.1472
 1137SOL    HW2 3547   1.286   3.116   0.574 -0.1555 -0.2274 -0.3507
 1138SOL     OW 3548   3.450   0.603   1.956  0.0255 -0.7583 -0.0979
 1138SOL    HW1 3549   3.379   0.547   1.987 -1.8415  1.0348 -0.8880
 1138SOL    HW2 3550   3.431   0.617   1.864  1.3681 -0.1617 -0.3028
 1139SOL     OW 3551   1.132   4.403   1.409  0.2252 -0.6421  0.3194
 1139SOL    HW1 3552   1.177   4.471   1.459 -0.3790 -0.8773  1.2043
 1139SOL    HW2 3553   1.078   4.357   1.473 -1.6987 -0.0365 -0.7846
 1140SOL     OW 3554   2.352   2.543   4.476 -0.3006 -0.8004 -0.1392
 1140SOL    HW1 3555   2.259   2.549   4.456 -0.1177 -1.1388 -1.1193
 1140SOL    HW2 3556   2.385   2.632   4.465 -0.6046 -0.5647  0.7635
 1141SOL     OW 3557   0.974   1.569   4.567 -0.2022  1.0211  0.0406
 1141SOL    HW1 3558   0.969   1.662   4.544 -2.0595  0.6493 -1.2327
 1141SOL    HW2 3559   1.011   1.527   4.490  0.1077  0.6157  0.4031
 1142SOL     OW 3560   0.958   4.587   2.486 -0.0893  1.0247 -0.0626
 1142SOL    HW1 3561   1.019   4.660   2.495  0.6407  0.3205  0.7899
 1142SOL    HW2 3562   1.001   4.528   2.424 -0.5184  1.1361 -0.4748
 1143SOL     OW 3563   3.860   2.016   3.430 -0.3367 -0.4215 -0.2331
 1143SOL    HW1 3564   3.836   1.934   3.387 -1.5184 -0.4375  0.4222
 1143SOL    HW2 3565   3.806   2.083   3.387  0.8258  0.0870 -0.9613
 1144SOL     OW 3566   2.468   1.836   0.568  0.0443 -0.1244 -0.4536
 1144SOL    HW1 3567   2.453   1.833   0.663 -1.1662  1.1724 -0.5777
 1144SOL    HW2 3568   2.485   1.745   0.544  1.1993 -0.3810  1.1190
 1145SOL     OW 3569   4.744   3.988   5.040 -0.4191 -0.5102 -0.5948
 1145SOL    HW1 3570   4.769   4.072   5.077 -5.3205  0.7845  0.4776
 1145SOL    HW2 3571   4.693   4.011   4.962 -0.5609 -2.6133 -1.1788
 1146SOL     OW 3572   2.325   0.460   4.760 -0.3099  0.2034  0.0540
 1146SOL    HW1 3573   2.365   0.383   4.801  0.9142  0.1809 -1.1291
 1146SOL    HW2 3574   2.323   0.525   4.830 -1.1896 -0.8156  1.0243
 1147SOL     OW 3575   0.155   0.964   2.509  0.2236  0.3088  0.1172
 1147SOL    HW1 3576   0.222   0.907   2.548 -0.0172 -0.5000 -0.6244
 1147SOL    HW2 3577   0.091   0.903   2.472 -0.2689  1.0764 -0.3040
 1148SOL     OW 3578   0.857   0.965   4.076 -0.5171  0.8984 -0.0598
 1148SOL    HW1 3579   0.876   0.985   3.985 -1.5900 -0.0611 -0.5254
 1148SOL    HW2 3580   0.777   1.015   4.095 -0.1045  1.3723  0.4744
 1149SOL     OW 3581   3.537   1.303   0.540 -0.2892 -0.3929 -0.0071
 1149SOL    HW1 3582   3.549   1.242   0.467  1.2796  0.0342 -0.1306
 1149SOL    HW2 3583   3.518   1.387   0.498  0.9781 -0.0655  0.0313
 1150SOL     OW 3584   4.669   3.061   4.660 -0.6847 -0.0065  0.3808
 1150SOL    HW1 3585   4.595   3.000   4.660 -2.0028  1.5039 -0.6206
 1150SOL    HW2 3586   4.652   3.119   4.586  2.4673 -0.6632 -1.0166
 1151SOL     OW 3587   3.382   4.101   2.531 -0.4140 -0.1866 -0.0171
 1151SOL    HW1 3588   3.395   4.008   2.516 -1.2570 -0.3950  0.4713
 1151SOL    HW2 3589   3.316   4.127   2.467  0.4402  0.2679 -0.7207
 1152SOL     OW 3590   2.912   4.923   3.050  0.6430 -0.1858  0.2514
 1152SOL    HW1 3591   2.909   4.939   3.145 -0.8431  0.7995  0.0667
 1152SOL    HW2 3592   2.996   4.961   3.023  0.9378 -0.1910  1.1269
 1153SOL     OW 3593   2.301   0.943   3.841  0.5069 -0.3575  0.0809
 1153SOL    HW1 3594   2.274   0.980   3.924 -1.4218  0.7741 -0.9894
 1153SOL    HW2 3595   2.288   0.848   3.851 -0.5041 -0.1565  0.7955
 1154SOL     OW 3596   2.779   0.918   3.405  0.0954  0.1618  0.0594
 1154SOL    HW1 3597   2.746   0.973   3.476  1.4761  0.0730  0.8063
 1154SOL    HW2 3598   2.705   0.909   3.345 -0.9924  0.5445  1.2962
 1155SOL     OW 3599   3.612   0.848   3.713  0.5831  0.4495 -0.2657
 1155SOL    HW1 3600   3.603   0.767   3.662 -1.5528  1.0570 -0.9324
 1155SOL    HW2 3601   3.646   0.912   3.650 -1.5277  1.0546 -0.8692
 1156SOL     OW 3602   2.650   2.884   3.930 -0.0595 -0.0107 -0.3575
 1156SOL    HW1 3603   2.634   2.790   3.932  1.6620 -0.3141  0.9654
 1156SOL    HW2 3604   2.675   2.902   3.839 -2.1647 -0.4471 -1.0971
 1157SOL     OW 3605   1.554   0.966   4.710 -0.2037 -0.6598  0.1462
 1157SOL    HW1 3606   1.599   0.925   4.783 -0.9652 -0.6626  0.6294
 1157SOL    HW2 3607   1.462   0.946   4.724 -0.3826 -0.4958 -0.7154
 1158SOL     OW 3608   4.972   3.932   4.179 -0.5065  0.2343 -0.5202
 1158SOL    HW1 3609   4.956   3.899   4.090 -0.6081  0.0241 -0.4236
 1158SOL    HW2 3610   4.991   3.854   4.230  0.1464  0.4128 -0.4827
 1159SOL     OW 3611   4.487   0.337   3.724  0.0135  0.0108 -0.2364
 1159SOL    HW1 3612   4.424   0.313   3.791  1.0663 -0.9207  0.4647
 1159SOL    HW2 3613   4.490   0.433   3.725 -1.1628  0.0485 -0.0921
 1160SOL     OW 3614   3.146   1.276   1.998 -0.6270  0.5743  0.4090
 1160SOL    HW1 3615   3.069   1.219   1.994 -0.3863  0.3163 -1.7580
 1160SOL    HW2 3616   3.109   1.364   2.007 -1.0958  0.3399  0.9003
 1161SOL     OW 3617   2.828   3.911   0.917 -0.6889  0.1984 -0.2750
 1161SOL    HW1 3618   2.876   3.992   0.938  2.8895 -1.6682 -0.4630
 1161SOL    HW2 3619   2.841   3.855   0.993 -0.7676 -1.1449 -1.2173
 1162SOL     OW 3620   4.759   2.975   4.239  0.2798  0.1258  0.0007
 1162SOL    HW1 3621   4.855   2.964   4.239  0.4892  1.5992  1.1079
 1162SOL    HW2 3622   4.742   3.038   4.170  0.2343  0.6753  0.5071
 1163SOL     OW 3623   4.245   2.417   0.254 -0.4856 -0.1734  0.5890
 1163SOL    HW1 3624   4.253   2.430   0.348  0.5893 -0.3111  0.5297
 1163SOL    HW2 3625   4.324   2.368   0.229  0.7511  2.3497 -0.8331
 1164SOL     OW 3626   4.899   4.078   0.258 -0.1411  0.3703 -0.3396
 1164SOL    HW1 3627   4.986   4.081   0.299  0.5346  2.5491 -1.7795
 1164SOL    HW2 3628   4.841   4.118   0.323  0.4310  1.3038 -0.3854
 1165SOL     OW 3629   3.109   4.637   3.777 -0.0901  0.6232 -0.1245
 1165SOL    HW1 3630   3.039   4.701   3.763 -2.7003 -1.7176  1.1861
 1165SOL    HW2 3631   3.157   4.670   3.852  0.0957  2.1701 -0.8932
 1166SOL     OW 3632   1.716   0.010   3.665 -0.1739  0.2703 -0.2808
 1166SOL    HW1 3633   1.757   0.053   3.740 -1.5068  0.6947  0.2466
 1166SOL    HW2 3634   1.689   0.082   3.608  0.2292 -0.0218 -0.8539
 1167SOL     OW 3635   1.843   0.145   0.754 -0.0464  0.0186  0.0110
 1167SOL    HW1 3636   1.751   0.167   0.770  0.2487  2.2631 -1.0130
 1167SOL    HW2 3637   1.840   0.085   0.679 -0.6302  1.9656 -1.6179
 1168SOL     OW 3638   0.286   3.797   2.609 -0.1519  0.3048  0.0249
 1168SOL    HW1 3639   0.234   3.766   2.535  0.1930 -0.8420  0.2478
 1168SOL    HW2 3640   0.360   3.737   2.614 -1.4739 -1.2585  2.8447
 1169SOL     OW 3641   0.276   4.201   1.778  0.8561  0.5784 -0.3540
 1169SOL    HW1 3642   0.194   4.151   1.779  2.0984 -1.6662 -1.6247
 1169SOL    HW2 3643   0.326   4.166   1.852 -0.5124  4.4017  2.7214
 1170SOL     OW 3644   3.131   4.016   3.252 -0.0644 -0.2587  0.7194
 1170SOL    HW1 3645   3.108   4.066   3.174 -0.5194 -1.7288 -0.1444
 1170SOL    HW2 3646   3.196   4.070   3.298 -2.7854  2.5415  1.5558
 1171SOL     OW 3647   4.564   0.417   0.156  0.4351  0.1700 -0.2965
 1171SOL    HW1 3648   4.570   0.369   0.073  2.4263 -1.0507  0.4745
 1171SOL    HW2 3649   4.653   0.412   0.193 -0.4844  0.3441  2.0901
 1172SOL     OW 3650   3.674   4.539   2.096  0.1628  0.0728 -0.2462
 1172SOL    HW1 3651   3.647   4.520   2.006 -0.2508  1.7036 -0.4960
 1172SOL    HW2 3652   3.758   4.583   2.088  2.5378 -3.8139  0.4786
 1173SOL     OW 3653   2.055   1.545   4.446 -0.0852 -0.7300 -0.3512
 1173SOL    HW1 3654   2.118   1.504   4.387 -0.7078 -1.2692 -0.6610
 1173SOL    HW2 3655   2.087   1.634   4.459 -0.2527 -0.4050 -1.9904
 1174SOL     OW 3656   3.860   4.158   3.358  0.3761  0.8190  0.2449
 1174SOL    HW1 3657   3.843   4.244   3.396  1.1506  1.4966 -0.8785
 1174SOL    HW2 3658   3.899   4.177   3.273 -2.4194 -0.6315 -1.4688
 1175SOL     OW 3659   0.085   2.869   4.605 -0.3802 -0.5391 -0.2463
 1175SOL    HW1 3660   0.028   2.916   4.665  1.3918 -0.7673  1.7295
 1175SOL    HW2 3661   0.074   2.777   4.629 -0.3361 -0.7182 -0.8987
 1176SOL     OW 3662   3.391   1.087   0.358 -0.1283 -0.1919 -0.2496
 1176SOL    HW1 3663   3.446   1.025   0.312 -1.2777 -1.4997  0.0676
 1176SOL    HW2 3664   3.301   1.058   0.340 -0.6533  0.4551  1.1385
 1177SOL     OW 3665   4.277   4.029   1.622  0.5748 -0.0100 -0.2180
 1177SOL    HW1 3666   4.270   4.094   1.552 -1.8466  0.7938  0.6826
 1177SOL    HW2 3667   4.195   3.980   1.617  1.2722 -1.3551  0.7506
 1178SOL     OW 3668   1.200   0.872   4.472  0.2088 -0.1265 -0.0880
 1178SOL    HW1 3669   1.119   0.878   4.523  1.3274 -1.5649  2.0404
 1178SOL    HW2 3670   1.261   0.825   4.529  2.4169  0.4551 -1.7967
 1179SOL     OW 3671   0.332   4.183   4.489 -0.2698 -0.2721  0.3522
 1179SOL    HW1 3672   0.278   4.145   4.419 -0.5370 -1.1894  1.0385
 1179SOL    HW2 3673   0.301   4.273   4.497 -0.6108 -0.3195 -0.3394
 1180SOL     OW 3674   2.565   2.289   0.675  0.3064  0.1417 -0.4251
 1180SOL    HW1 3675   2.552   2.286   0.769 -0.6352 -1.0834 -0.5642
 1180SOL    HW2 3676   2.612   2.208   0.655 -0.3260 -0.0753 -1.1036
 1181SOL     OW 3677   3.375   4.948   1.573 -0.0603 -0.0622 -0.0585
 1181SOL    HW1 3678   3.421   4.969   1.491  1.3608 -0.4710  0.6002
 1181SOL    HW2 3679   3.283   4.964   1.553  0.4441  1.8831 -1.1183
 1182SOL     OW 3680   2.730   2.890   4.194 -0.1695  0.2036 -0.2404
 1182SOL    HW1 3681   2.724   2.963   4.132 -0.7188  0.9468  0.6532
 1182SOL    HW2 3682   2.641   2.855   4.199 -1.0083  2.3594  2.6499
 1183SOL     OW 3683   1.187   3.781   0.340  0.3221 -0.4906 -0.2803
 1183SOL    HW1 3684   1.111   3.818   0.295 -0.0714  0.0165  0.7714
 1183SOL    HW2 3685   1.150   3.716   0.399  1.0027 -2.7596 -2.1793
 1184SOL     OW 3686   2.211   1.618   4.818  0.2458 -0.7204 -0.7332
 1184SOL    HW1 3687   2.291   1.620   4.765  0.5169  0.7377 -0.3058
 1184SOL    HW2 3688   2.171   1.704   4.804  1.2256  0.4662  2.7315
 1185SOL     OW 3689   4.150   4.516   1.898 -0.3467 -0.1054  0.0186
 1185SOL    HW1 3690   4.168   4.459   1.823  1.0710 -0.1338  0.3499
 1185SOL    HW2 3691   4.067   4.559   1.876 -1.1766 -1.8709 -0.4831
 1186SOL     OW 3692   2.551   4.683   4.122  0.3928  0.0561 -0.0131
 1186SOL    HW1 3693   2.586   4.734   4.195  1.9071  0.3081 -0.8570
 1186SOL    HW2 3694   2.603   4.603   4.121 -0.5705 -0.5853  0.0359
 1187SOL     OW 3695   2.151   4.328   1.130 -0.1992 -0.6811  0.0951
 1187SOL    HW1 3696   2.188   4.241   1.114  1.2094 -0.4320  1.6778
 1187SOL    HW2 3697   2.199   4.361   1.206 -0.3443  1.7031 -0.7555
 1188SOL     OW 3698   3.171   2.564   0.070  0.2846  0.0980 -0.4203
 1188SOL    HW1 3699   3.148   2.645   0.025  0.9471  1.3888  1.4166
 1188SOL    HW2 3700   3.267   2.561   0.067  0.4797  1.0354  2.0627
 1189SOL     OW 3701   2.257   1.544   0.666  0.5537  0.0864  0.0204
 1189SOL    HW1 3702   2.328   1.537   0.602 -2.1028 -1.0261 -3.0341
 1189SOL    HW2 3703   2.186   1.586   0.618 -1.6501 -0.9141  2.2421
 1190SOL     OW 3704   4.552   1.494   1.615  0.7806 -0.0427  0.9826
 1190SOL    HW1 3705   4.489   1.427   1.643 -0.1287  0.0531 -0.6929
 1190SOL    HW2 3706   4.536   1.504   1.522  1.0519  2.3749  1.1426
 1191SOL     OW 3707   3.764   2.358   0.536  0.2815 -0.1190 -0.3770
 1191SOL    HW1 3708   3.778   2.377   0.443 -2.0695 -0.6829 -0.9063
 1191SOL    HW2 3709   3.674   2.385   0.553  0.1341 -1.5106  1.3436
 1192SOL     OW 3710   3.141   2.984   5.011 -0.0907 -0.2272  0.3191
 1192SOL    HW1 3711   3.084   2.911   4.986 -1.3210  0.8234 -0.0468
 1192SOL    HW2 3712   3.163   3.026   4.928  2.7864 -1.6459  0.2247
 1193SOL     OW 3713   1.608   0.194   0.429 -0.1646 -0.2354  0.8542
 1193SOL    HW1 3714   1.560   0.122   0.470  0.1185 -0.7422  0.3102
 1193SOL    HW2 3715   1.646   0.242   0.503  2.2714 -2.4804  1.1973
 1194SOL     OW 3716   0.391   3.541   3.961  0.0588 -0.4900  0.4810
 1194SOL    HW1 3717   0.432   3.602   3.900 -1.1155  0.0664  0.2163
 1194SOL    HW2 3718   0.362   3.468   3.906 -1.3053  0.1669  0.2724
 1195SOL     OW 3719   4.044   0.483   2.883 -0.6527 -0.4005 -0.4569
 1195SOL    HW1 3720   4.068   0.476   2.976 -1.9763 -0.3024 -0.0841
 1195SOL    HW2 3721   4.022   0.393   2.858 -2.5740 -0.0927  0.0022
 1196SOL     OW 3722   1.571   2.597   0.600 -0.4715 -0.3497  0.1150
 1196SOL    HW1 3723   1.545   2.613   0.691 -1.2002  2.4783 -0.5009
 1196SOL    HW2 3724   1.663   2.621   0.597 -1.1898  2.8083 -0.4616
 1197SOL     OW 3725   2.447   4.753   0.752 -0.3816  0.3539 -0.1816
 1197SOL    HW1 3726   2.420   4.774   0.663  0.4273 -1.4678 -0.9145
 1197SOL    HW2 3727   2.393   4.677   0.775  2.7098 -2.3432 -1.0717
 1198SOL     OW 3728   1.215   1.544   3.079 -0.5317  0.1156 -0.6681
 1198SOL    HW1 3729   1.204   1.556   2.985  0.7732 -0.0496 -0.8618
 1198SOL    HW2 3730   1.135   1.579   3.117 -0.3548  1.8220 -1.7304
 1199SOL     OW 3731   4.095   0.760   3.965 -0.1512  0.2239  0.8648
 1199SOL    HW1 3732   4.058   0.835   4.011 -0.4754  0.6707 -0.0822
 1199SOL    HW2 3733   4.132   0.797   3.885 -1.2915 -0.7499 -0.1581
 1200SOL     OW 3734   2.133   1.607   2.225 -0.0847  0.2949 -0.5836
 1200SOL    HW1 3735   2.100   1.660   2.298  1.7347 -0.0278  0.5330
 1200SOL    HW2 3736   2.102   1.519   2.244 -1.5765  0.5980 -1.4773
 1201SOL     OW 3737   1.927   3.348   1.218  0.1398  0.0485  0.2167
 1201SOL    HW1 3738   1.966   3.272   1.175 -0.9160 -1.4600  1.7840
 1201SOL    HW2 3739   1.945   3.334   1.311 -0.5337  1.4650  0.5825
 1202SOL     OW 3740   4.375   3.986   3.122 -0.1594  0.3033  0.8769
 1202SOL    HW1 3741   4.358   3.907   3.172  1.2055 -0.1605  0.6483
 1202SOL    HW2 3742   4.451   4.026   3.163  1.8652 -0.7973 -1.5176
 1203SOL     OW 3743   4.976   3.483   0.520 -0.4888  0.6332  0.4793
 1203SOL    HW1 3744   4.950   3.437   0.600  1.1880  0.2873  0.8463
 1203SOL    HW2 3745   4.934   3.433   0.450 -2.0482  0.9920  1.1168
 1204SOL     OW 3746   4.721   0.816   0.843 -0.1644  1.0994  0.6705
 1204SOL    HW1 3747   4.737   0.759   0.768  0.3585  0.6976  1.0787
 1204SOL    HW2 3748   4.675   0.891   0.806  1.1722  1.4898 -0.2759
 1205SOL     OW 3749   3.398   1.691   2.996  0.0191 -0.1971 -0.0143
 1205SOL    HW1 3750   3.339   1.757   2.960 -0.9887 -0.5784  0.8995
 1205SOL    HW2 3751   3.377   1.611   2.949 -0.8327 -0.5383  0.9051
 1206SOL     OW 3752   2.005   0.738   3.337  0.2805 -0.4332  0.6415
 1206SOL    HW1 3753   1.915   0.707   3.352 -0.2993  0.8384 -0.0076
 1206SOL    HW2 3754   2.019   0.802   3.407  0.7965 -0.8196  0.8972
 1207SOL     OW 3755   1.936   1.800   0.381  0.6797 -0.0875 -0.3879
 1207SOL    HW1 3756   1.855   1.787   0.332  0.1054 -0.4890  0.6397
 1207SOL    HW2 3757   1.964   1.889   0.357 -2.0562  1.6039  1.9630
 1208SOL     OW 3758   0.021   2.247   0.668 -0.2650  0.6489  0.3137
 1208SOL    HW1 3759  -0.019   2.177   0.616 -1.7942  0.9566  1.0201
 1208SOL    HW2 3760   0.020   2.323   0.610  1.9126  0.0207 -0.6589
 1209SOL     OW 3761   2.926   2.772   1.333 -0.2388  0.0366  0.1219
 1209SOL    HW1 3762   2.910   2.819   1.415 -0.7712 -0.9963  0.6305
 1209SOL    HW2 3763   2.990   2.705   1.356  0.3970  0.3864 -0.5611
 1210SOL     OW 3764   0.117   1.610   3.371 -0.7205  0.7512 -0.0406
 1210SOL    HW1 3765   0.208   1.583   3.372 -0.3363  1.7144 -2.2612
 1210SOL    HW2 3766   0.069   1.538   3.412  0.8968 -0.3045  0.0441
 1211SOL     OW 3767   0.921   4.432   3.330 -0.0041 -0.5909  0.3693
 1211SOL    HW1 3768   1.012   4.439   3.303 -0.2366 -0.2691 -0.3527
 1211SOL    HW2 3769   0.874   4.408   3.251 -0.8122  1.0997  0.2868
 1212SOL     OW 3770   4.241   0.123   0.286 -0.1816  0.4924 -0.0294
 1212SOL    HW1 3771   4.213   0.160   0.369  0.4000  1.2798 -0.1766
 1212SOL    HW2 3772   4.268   0.198   0.233 -3.2011  0.3825 -2.0234
 1213SOL     OW 3773   0.789   1.751   3.734 -0.6594 -0.7576 -0.4526
 1213SOL    HW1 3774   0.884   1.759   3.742 -0.7789  0.9303 -0.2496
 1213SOL    HW2 3775   0.760   1.716   3.819 -0.4743  2.0646  0.9182
 1214SOL     OW 3776   1.914   1.599   4.183 -0.7791 -0.2926 -0.1465
 1214SOL    HW1 3777   1.940   1.650   4.259 -2.1180 -0.2651  0.3197
 1214SOL    HW2 3778   1.860   1.529   4.218  0.8220 -1.9479 -0.8027
 1215SOL     OW 3779   0.525   1.077   3.394 -0.3083 -0.1410  0.5172
 1215SOL    HW1 3780   0.533   0.983   3.412 -0.6961 -0.4225 -0.7166
 1215SOL    HW2 3781   0.451   1.105   3.447 -2.0015 -1.1385 -1.2051
 1216SOL     OW 3782   1.941   1.387   1.206 -0.2067  0.0803 -0.3202
 1216SOL    HW1 3783   1.999   1.463   1.216 -0.3648  0.0829  0.6837
 1216SOL    HW2 3784   1.997   1.311   1.222 -0.7020  0.1274  1.9620
 1217SOL     OW 3785   3.707   1.378   3.938  0.3239 -0.4365  0.6864
 1217SOL    HW1 3786   3.713   1.282   3.933 -0.5929 -0.6004  2.0008
 1217SOL    HW2 3787   3.720   1.408   3.848 -0.7046 -1.8904  0.0134
 1218SOL     OW 3788   0.189   3.930   2.268 -0.0509 -0.1689 -0.1511
 1218SOL    HW1 3789   0.154   4.014   2.298 -2.2781 -1.4746  1.1485
 1218SOL    HW2 3790   0.276   3.925   2.309  0.0112  1.3593 -0.0296
 1219SOL     OW 3791   0.037   1.350   4.549  0.1756  0.2449  0.0426
 1219SOL    HW1 3792   0.089   1.410   4.602  0.2930  2.5300 -2.4095
 1219SOL    HW2 3793  -0.045   1.339   4.598  1.7788 -1.1727  2.6069
 1220SOL     OW 3794   3.275   1.274   3.148 -0.0542 -0.3769 -0.6372
 1220SOL    HW1 3795   3.236   1.310   3.228  1.4947  0.6692 -0.2979
 1220SOL    HW2 3796   3.273   1.180   3.160 -1.7480 -0.3317 -0.3171
 1221SOL     OW 3797   4.334   1.780   3.186  0.5882  0.0607 -0.1483
 1221SOL    HW1 3798   4.249   1.777   3.229  1.3827  1.1642  1.6201
 1221SOL    HW2 3799   4.354   1.874   3.181  0.6345 -0.0224 -2.8206
 1222SOL     OW 3800   4.644   4.937   0.558  0.3720  0.0256  0.0559
 1222SOL    HW1 3801   4.567   4.885   0.537  0.9594 -0.9819  0.3205
 1222SOL    HW2 3802   4.639   4.950   0.653 -0.4479  1.5771 -0.1792
 1223SOL     OW 3803   1.408   1.347   2.372  0.1279  0.6187 -0.2054
 1223SOL    HW1 3804   1.497   1.317   2.355 -0.2293 -1.3227  1.0491
 1223SOL    HW2 3805   1.419   1.427   2.423  1.1164  1.4510 -1.6499
 1224SOL     OW 3806   2.271   4.749   1.638 -0.0531  0.9119  1.1776
 1224SOL    HW1 3807   2.304   4.669   1.598  1.0591  1.3928  1.1053
 1224SOL    HW2 3808   2.269   4.813   1.567 -0.0358  1.2014  1.4364
 1225SOL     OW 3809   0.658   4.359   2.778 -0.0803  0.1351  0.2229
 1225SOL    HW1 3810   0.743   4.352   2.821  0.0171 -0.0006  0.0089
 1225SOL    HW2 3811   0.597   4.320   2.840  0.1253 -0.4798  0.0440
 1226SOL     OW 3812   0.539   2.977   1.806 -0.0720  0.7779 -0.2883
 1226SOL    HW1 3813   0.616   2.986   1.862 -2.4922 -2.9483  4.4148
 1226SOL    HW2 3814   0.471   3.027   1.851 -1.3320  1.0164 -2.3216
 1227SOL     OW 3815   4.524   1.166   3.315 -0.2533 -0.2990  0.3962
 1227SOL    HW1 3816   4.575   1.171   3.234 -0.6689 -1.4152  0.0357
 1227SOL    HW2 3817   4.523   1.255   3.349 -1.0171  0.4395 -1.4123
 1228SOL     OW 3818   1.465   4.378   0.213  0.7101  0.4162 -0.4877
 1228SOL    HW1 3819   1.414   4.449   0.176  1.7509  0.7675 -1.3096
 1228SOL    HW2 3820   1.447   4.303   0.157  0.2388  0.2406 -0.1057
 1229SOL     OW 3821   0.666   2.368   4.437 -0.3580  0.3527  0.7214
 1229SOL    HW1 3822   0.745   2.319   4.413 -1.7557 -1.0974 -1.2442
 1229SOL    HW2 3823   0.621   2.313   4.500  0.2993  1.3226  2.0810
 1230SOL     OW 3824   2.713   4.530   0.501  0.0630 -0.3118  0.5891
 1230SOL    HW1 3825   2.733   4.618   0.531 -0.4874  0.4878 -1.2330
 1230SOL    HW2 3826   2.793   4.500   0.457  0.5965 -1.1567  2.0687
 1231SOL     OW 3827   4.264   1.331   2.346 -0.4895  0.0737 -0.0643
 1231SOL    HW1 3828   4.218   1.334   2.430 -1.9605 -0.5879 -0.8217
 1231SOL    HW2 3829   4.207   1.280   2.289  0.4939  0.5013 -1.4712
 1232SOL     OW 3830   0.647   0.957   1.902  0.1375 -0.0582  0.0793
 1232SOL    HW1 3831   0.681   1.047   1.903  1.3939 -0.5013 -0.3164
 1232SOL    HW2 3832   0.720   0.905   1.869 -0.4310 -1.2856  0.7154
 1233SOL     OW 3833   3.619   0.761   2.409 -0.3538  0.1864  0.3179
 1233SOL    HW1 3834   3.605   0.679   2.361 -0.1061 -0.4432  1.3051
 1233SOL    HW2 3835   3.697   0.800   2.368  0.5349 -0.9035  0.9361
 1234SOL     OW 3836   2.799   4.327   4.636 -0.1639  0.1194  0.5465
 1234SOL    HW1 3837   2.819   4.253   4.694 -0.6821  0.2942  0.9626
 1234SOL    HW2 3838   2.723   4.369   4.678 -0.2581  0.5153 -0.0211
 1235SOL     OW 3839   4.958   4.430   2.201  0.3419 -0.4753 -0.2201
 1235SOL    HW1 3840   4.961   4.351   2.255 -0.4992 -0.8089 -0.6350
 1235SOL    HW2 3841   4.987   4.501   2.259  0.8053 -1.0380  0.2464
 1236SOL     OW 3842   0.243   3.219   1.579  0.0280  0.7727 -0.1077
 1236SOL    HW1 3843   0.258   3.151   1.646  0.4427  0.7570 -0.2106
 1236SOL    HW2 3844   0.150   3.211   1.557 -0.1281  0.8232  0.5161
 1237SOL     OW 3845   0.005   4.404   4.152  0.9188 -0.9002  0.1440
 1237SOL    HW1 3846   0.079   4.464   4.165  0.3553  0.0447 -0.8789
 1237SOL    HW2 3847   0.005   4.350   4.232  2.4518 -0.6658  0.3486
 1238SOL     OW 3848   2.039   2.637   1.706  0.0572  0.2315 -0.4981
 1238SOL    HW1 3849   1.959   2.654   1.657 -0.7465 -0.8563  0.3751
 1238SOL    HW2 3850   2.023   2.677   1.792  0.0622 -0.7696 -0.0192
 1239SOL     OW 3851   0.153   3.624   4.679  0.3418  0.3884 -0.1847
 1239SOL    HW1 3852   0.209   3.686   4.632  0.7459  0.2914  0.1582
 1239SOL    HW2 3853   0.171   3.641   4.771 -1.5681  1.6067 -0.0078
 1240SOL     OW 3854   1.481   3.640   1.414  0.9983  0.1416 -0.1559
 1240SOL    HW1 3855   1.402   3.626   1.466  1.3150 -1.2654 -0.0126
 1240SOL    HW2 3856   1.544   3.578   1.450  1.7261  0.2706 -1.1857
 1241SOL     OW 3857   1.187   4.104   0.238 -0.8067 -0.7196  0.1441
 1241SOL    HW1 3858   1.150   4.192   0.232 -2.8037 -1.5409 -0.5132
 1241SOL    HW2 3859   1.278   4.115   0.212 -1.1999  1.0291 -0.6794
 1242SOL     OW 3860   0.729   0.735   0.621 -0.1741  0.6109 -0.6699
 1242SOL    HW1 3861   0.753   0.718   0.712 -3.0227  0.5404  0.1723
 1242SOL    HW2 3862   0.643   0.777   0.626 -0.6059  0.2637 -3.3486
 1243SOL     OW 3863   4.645   2.035   0.761  0.3896  0.4484 -0.0312
 1243SOL    HW1 3864   4.652   1.940   0.754  0.0878  0.3849  0.5351
 1243SOL    HW2 3865   4.571   2.050   0.819  1.2149  1.0034  0.9184
 1244SOL     OW 3866   3.035   2.735   4.928  0.4206  0.0071  0.5693
 1244SOL    HW1 3867   3.088   2.756   4.851  0.3107 -1.3434  0.1061
 1244SOL    HW2 3868   2.965   2.679   4.895  0.5504 -0.8488  1.6946
 1245SOL     OW 3869   4.106   2.089   1.983  0.0143  0.4410  0.0894
 1245SOL    HW1 3870   4.134   1.998   1.996 -0.3390  0.5854  2.3225
 1245SOL    HW2 3871   4.021   2.082   1.941 -0.3766 -0.3046  0.9800
 1246SOL     OW 3872   1.277   4.630   4.981 -0.1970  0.4510 -0.1053
 1246SOL    HW1 3873   1.200   4.656   4.932  0.2174  1.0286 -0.4611
 1246SOL    HW2 3874   1.258   4.658   5.071 -1.9559 -2.6732  0.6387
 1247SOL     OW 3875   3.184   3.527   3.529 -0.1661 -0.3499  0.3266
 1247SOL    HW1 3876   3.219   3.536   3.618  1.8254 -2.2146 -0.1752
 1247SOL    HW2 3877   3.201   3.612   3.488  0.3693  0.0191  1.2757
 1248SOL     OW 3878   4.757   0.657   2.016 -0.0757 -0.1621 -0.7023
 1248SOL    HW1 3879   4.843   0.644   2.057 -0.2789 -1.0683 -0.5387
 1248SOL    HW2 3880   4.710   0.713   2.078  0.2362 -0.0529 -0.5606
 1249SOL     OW 3881   3.037   2.098   4.381  0.6271  0.3332  0.0580
 1249SOL    HW1 3882   3.054   2.008   4.353 -0.7190 -0.8230  2.5957
 1249SOL    HW2 3883   3.117   2.125   4.425  0.5282 -0.1943  0.5718
 1250SOL     OW 3884   2.878   1.647   3.757 -0.4381  0.1856  0.9815
 1250SOL    HW1 3885   2.857   1.559   3.727 -1.9575  0.7766  0.1956
 1250SOL    HW2 3886   2.972   1.656   3.741 -0.2122 -1.3535  1.2888
 1251SOL     OW 3887   4.989   4.792   2.758 -0.1364  0.1166 -0.2898
 1251SOL    HW1 3888   5.061   4.850   2.735 -2.1639  3.2600  0.5820
 1251SOL    HW2 3889   5.017   4.705   2.729  3.6844  1.2292 -0.4645
 1252SOL     OW 3890   1.897   1.548   3.872  0.0511 -0.5171  0.0521
 1252SOL    HW1 3891   1.913   1.638   3.844  0.9480 -1.0626 -1.3191
 1252SOL    HW2 3892   1.892   1.553   3.968  2.6314  0.6529  0.2188
 1253SOL     OW 3893   1.980   1.542   1.825  0.1151 -0.3515  0.5453
 1253SOL    HW1 3894   2.039   1.595   1.879 -1.7210  1.1000  1.2086
 1253SOL    HW2 3895   1.910   1.515   1.884 -0.3157 -1.4016 -0.4032
 1254SOL     OW 3896   2.286   0.676   0.183 -0.1179 -0.8239  0.1293
 1254SOL    HW1 3897   2.353   0.648   0.244  0.5561  2.8662  1.3202
 1254SOL    HW2 3898   2.206   0.633   0.213  0.6737 -0.9862  2.1522
 1255SOL     OW 3899   2.079   2.522   4.403  0.9409  0.3540 -0.0487
 1255SOL    HW1 3900   2.003   2.546   4.456  0.0888 -0.9686 -0.6090
 1255SOL    HW2 3901   2.059   2.555   4.315  1.6224  1.1444  0.0840
 1256SOL     OW 3902   4.403   0.636   0.045 -0.1269 -0.0606  0.4223
 1256SOL    HW1 3903   4.466   0.599   0.106  1.6510 -0.9291 -1.8003
 1256SOL    HW2 3904   4.337   0.567   0.035  0.7806 -0.8544 -0.2958
 1257SOL     OW 3905   1.652   3.937   4.816 -0.0550  0.1995  0.1345
 1257SOL    HW1 3906   1.596   3.888   4.756 -1.7610  0.1511  1.6956
 1257SOL    HW2 3907   1.739   3.936   4.774 -0.6949 -1.6293 -1.2646
 1258SOL     OW 3908   1.464   1.740   2.752  0.1927 -0.0953  0.3269
 1258SOL    HW1 3909   1.480   1.694   2.670  3.1296 -0.0715  0.7864
 1258SOL    HW2 3910   1.404   1.811   2.729  0.5922 -0.3742 -1.6959
 1259SOL     OW 3911   1.857   0.393   3.595 -0.4783 -0.0056 -0.2987
 1259SOL    HW1 3912   1.868   0.418   3.503  1.0094 -1.2077 -0.5058
 1259SOL    HW2 3913   1.766   0.365   3.602 -1.7789  3.6577 -0.4155
 1260SOL     OW 3914   2.431   0.806   2.810  0.2562 -0.4474  0.4931
 1260SOL    HW1 3915   2.390   0.734   2.761  0.1691  0.3894 -0.7042
 1260SOL    HW2 3916   2.360   0.844   2.861  0.3035 -1.1932  1.1437
 1261SOL     OW 3917   4.910   0.302   3.522  0.5925  0.0977 -0.2575
 1261SOL    HW1 3918   4.969   0.317   3.596  1.0842  0.2794 -0.6832
 1261SOL    HW2 3919   4.968   0.293   3.446  0.0731  0.3247 -0.6908
 1262SOL     OW 3920   3.341   0.002   2.297  0.8056 -0.1600 -0.4719
 1262SOL    HW1 3921   3.333   0.088   2.256 -3.3348  0.3208  0.8166
 1262SOL    HW2 3922   3.347   0.020   2.391 -1.1259 -1.1721 -0.0901
 1263SOL     OW 3923   3.982   3.178   1.621 -0.8604 -0.0406  0.3304
 1263SOL    HW1 3924   3.899   3.157   1.663 -1.3467  0.7735 -0.1921
 1263SOL    HW2 3925   3.963   3.254   1.566 -0.3542 -1.2409 -1.6264
 1264SOL     OW 3926   1.890   3.042   0.046  0.1367  0.1615  0.2847
 1264SOL    HW1 3927   1.984   3.032   0.027 -0.0253  1.7258 -1.6261
 1264SOL    HW2 3928   1.847   3.013  -0.034 -0.8871  1.8466  0.1875
 1265SOL     OW 3929   3.233   4.801   4.977 -0.2034  0.6455 -0.1340
 1265SOL    HW1 3930   3.244   4.762   5.064  0.1759  1.4900  0.2036
 1265SOL    HW2 3931   3.296   4.873   4.974 -0.7856  1.1467 -0.7966
 1266SOL     OW 3932   2.502   3.806   2.008  0.2169  0.1759 -0.4782
 1266SOL    HW1 3933   2.523   3.784   2.099  1.6762 -0.0710 -0.8563
 1266SOL    HW2 3934   2.497   3.721   1.963  1.6188  0.3784 -1.0537
 1267SOL     OW 3935   4.615   2.437   3.609 -0.2190 -0.2853  0.1572
 1267SOL    HW1 3936   4.613   2.508   3.545 -0.6749  0.7058  1.2226
 1267SOL    HW2 3937   4.614   2.481   3.694 -0.6714 -1.5722  0.8553
 1268SOL     OW 3938   4.522   3.258   4.536  0.4533  0.1811 -0.3767
 1268SOL    HW1 3939   4.432   3.234   4.515  0.0190  1.9949 -0.8027
 1268SOL    HW2 3940   4.516   3.307   4.618  0.7570  1.8504 -1.3000
 1269SOL     OW 3941   3.251   1.092   5.003 -0.3990  0.3034  0.1182
 1269SOL    HW1 3942   3.342   1.116   5.022  0.4244 -1.7566 -0.9229
 1269SOL    HW2 3943   3.244   1.001   5.030 -1.3628 -0.3861 -2.1706
 1270SOL     OW 3944   2.498   0.204   0.418  0.1102  0.1354 -0.3427
 1270SOL    HW1 3945   2.566   0.140   0.436  1.6049  2.0545  1.3505
 1270SOL    HW2 3946   2.528   0.284   0.461 -2.6990  1.3911 -0.4679
 1271SOL     OW 3947   4.305   1.181   4.387 -0.4783  0.2162 -0.1745
 1271SOL    HW1 3948   4.348   1.173   4.472 -0.9675  0.8127  0.1439
 1271SOL    HW2 3949   4.298   1.276   4.373 -0.1354  0.1208 -1.0198
 1272SOL     OW 3950   2.693   2.999   2.907 -0.1460 -0.2036  0.2800
 1272SOL    HW1 3951   2.666   2.983   2.816  0.5147  0.5667 -0.0698
 1272SOL    HW2 3952   2.788   2.995   2.904 -0.1405 -2.2791  1.3710
 1273SOL     OW 3953   0.109   2.420   3.336  0.4950 -0.0584 -0.1939
 1273SOL    HW1 3954   0.166   2.441   3.410  2.4764 -1.8670 -1.0838
 1273SOL    HW2 3955   0.036   2.371   3.374  1.7313 -1.3888  0.5489
 1274SOL     OW 3956   2.405   3.579   1.498 -0.2500 -0.2156  0.5133
 1274SOL    HW1 3957   2.387   3.637   1.423  1.9392 -0.5765 -0.3481
 1274SOL    HW2 3958   2.320   3.540   1.518 -1.1861  1.0124 -0.8255
 1275SOL     OW 3959   0.867   3.633   4.990 -0.1288 -0.0510  0.6552
 1275SOL    HW1 3960   0.864   3.725   4.964  0.2731  0.2965  1.7851
 1275SOL    HW2 3961   0.899   3.634   5.080 -0.5465 -1.2701  0.8420
 1276SOL     OW 3962   3.474   3.079   4.384 -0.5216 -0.2822  0.2695
 1276SOL    HW1 3963   3.513   3.132   4.453 -1.3969 -0.7303  1.1361
 1276SOL    HW2 3964   3.381   3.075   4.407 -1.0012  0.2575 -1.4010
 1277SOL     OW 3965   1.463   0.787   2.246  0.6907  0.0835 -0.1413
 1277SOL    HW1 3966   1.499   0.866   2.205 -0.4774  0.9044  0.3333
 1277SOL    HW2 3967   1.410   0.747   2.176 -0.4149  0.8912  0.1952
 1278SOL     OW 3968   4.755   2.821   0.526 -0.5898 -0.1625 -0.4320
 1278SOL    HW1 3969   4.789   2.906   0.554 -0.4195 -0.7350  1.2075
 1278SOL    HW2 3970   4.784   2.812   0.436  1.9579  0.2335  0.2884
 1279SOL     OW 3971   3.423   1.424   4.365  0.2368  0.5100 -0.4881
 1279SOL    HW1 3972   3.391   1.336   4.382 -1.0159  0.9764 -0.3060
 1279SOL    HW2 3973   3.412   1.470   4.449 -0.7644  1.3032 -1.0308
 1280SOL     OW 3974   3.443   4.907   1.121 -0.7706  0.3620  0.4375
 1280SOL    HW1 3975   3.418   4.921   1.212 -2.3027  0.0068  0.1078
 1280SOL    HW2 3976   3.360   4.912   1.072  0.0331  0.7369 -0.9614
 1281SOL     OW 3977   2.295   1.029   4.821  0.3379 -0.5259 -1.0865
 1281SOL    HW1 3978   2.204   1.036   4.848  0.1981  2.1316 -2.0184
 1281SOL    HW2 3979   2.328   0.951   4.866 -1.8564 -0.4586  0.7501
 1282SOL     OW 3980   4.104   0.615   0.991 -0.0312 -0.0420  0.1151
 1282SOL    HW1 3981   4.033   0.673   0.963 -0.6148 -1.3729 -1.3348
 1282SOL    HW2 3982   4.072   0.527   0.970  0.0290 -1.1570  3.9505
 1283SOL     OW 3983   0.357   2.105   3.891 -0.4043  0.6306 -0.2049
 1283SOL    HW1 3984   0.384   2.124   3.801 -0.3260  2.0384  0.0813
 1283SOL    HW2 3985   0.438   2.114   3.942 -0.7929  1.7761  0.2448
 1284SOL     OW 3986   0.484   2.791   0.780  0.6860  0.5722 -0.3751
 1284SOL    HW1 3987   0.460   2.704   0.747 -0.3892  1.4455 -2.0721
 1284SOL    HW2 3988   0.497   2.779   0.874 -0.4651 -1.2173 -0.4035
 1285SOL     OW 3989   4.021   1.090   4.999  0.1470 -0.6572  1.0097
 1285SOL    HW1 3990   3.960   1.022   4.972  2.4670 -2.7563  0.6679
 1285SOL    HW2 3991   4.056   1.058   5.083  0.6617  0.5514  1.2707
 1286SOL     OW 3992   3.148   0.332   3.626  0.7261 -0.3942  0.0412
 1286SOL    HW1 3993   3.197   0.313   3.706  0.9476  1.1156  0.2991
 1286SOL    HW2 3994   3.215   0.354   3.561  0.5487  4.0968  1.0257
 1287SOL     OW 3995   4.163   3.769   1.295  0.0422  0.6490  0.5802
 1287SOL    HW1 3996   4.080   3.746   1.253  0.5793  0.3803 -0.3759
 1287SOL    HW2 3997   4.203   3.684   1.317  0.2298  0.7642  0.6876
 1288SOL     OW 3998   2.446   1.207   3.264  0.1448  0.5339  0.1854
 1288SOL    HW1 3999   2.520   1.217   3.324 -1.4113 -0.0070  2.3622
 1288SOL    HW2 4000   2.369   1.220   3.320 -1.4380 -1.1607 -1.4549
 1289SOL     OW 4001   0.524   4.020   3.746  0.3680  0.2082 -0.1783
 1289SOL    HW1 4002   0.599   4.030   3.805  1.1599  0.1710 -1.1376
 1289SOL    HW2 4003   0.515   4.106   3.704 -0.5404  0.3981  0.3999
 1290SOL     OW 4004   2.248   2.024   3.572 -0.6492 -0.2162  0.1049
 1290SOL    HW1 4005   2.274   2.043   3.482 -1.6292  0.6756 -0.0069
 1290SOL    HW2 4006   2.319   2.059   3.625 -0.0114 -0.8416 -0.3156
 1291SOL     OW 4007   4.779   2.160   1.336 -0.0165  0.0098 -0.1131
 1291SOL    HW1 4008   4.730   2.090   1.379 -2.0116  0.6707 -1.1613
 1291SOL    HW2 4009   4.846   2.186   1.400  1.4307 -3.4094 -0.0314
 1292SOL     OW 4010   1.711   0.362   0.229  0.2472 -0.2703  0.4450
 1292SOL    HW1 4011   1.772   0.363   0.304 -1.3976 -1.4479  1.8712
 1292SOL    HW2 4012   1.635   0.313   0.260 -0.9185  0.0433 -1.7094
 1293SOL     OW 4013   3.521   4.088   0.569 -0.0626 -0.2461 -0.8841
 1293SOL    HW1 4014   3.478   4.037   0.500 -0.8550 -0.4534 -0.2529
 1293SOL    HW2 4015   3.451   4.143   0.605  0.4825  0.3020 -0.6554
 1294SOL     OW 4016   0.494   3.327   0.525 -0.0576 -0.6289 -0.2770
 1294SOL    HW1 4017   0.480   3.373   0.608 -2.7153 -1.2800 -0.2797
 1294SOL    HW2 4018   0.565   3.265   0.544 -0.2176 -0.3662  1.3317
 1295SOL     OW 4019   0.772   1.308   3.566 -0.8591 -0.0810 -0.2831
 1295SOL    HW1 4020   0.853   1.284   3.522  0.7416  2.3224  1.1286
 1295SOL    HW2 4021   0.787   1.285   3.658 -2.4351 -1.0293 -0.2284
 1296SOL     OW 4022   4.201   0.365   4.650  0.1868  0.4651 -0.2354
 1296SOL    HW1 4023   4.186   0.401   4.563  0.1177 -1.2262 -0.9584
 1296SOL    HW2 4024   4.293   0.383   4.669  0.5985 -0.4384 -1.3003
 1297SOL     OW 4025   0.256   2.015   2.156 -0.6299  0.1732 -0.6806
 1297SOL    HW1 4026   0.274   1.979   2.243  0.7895  2.5146  0.0954
 1297SOL    HW2 4027   0.174   1.974   2.130 -1.5420 -0.0414  2.1454
 1298SOL     OW 4028   4.227   2.427   1.009  0.1186 -0.1837  0.6540
 1298SOL    HW1 4029   4.265   2.390   1.089  1.1392  0.0963  0.3154
 1298SOL    HW2 4030   4.282   2.393   0.939 -1.0315 -0.7868  0.0064
 1299SOL     OW 4031   3.540   1.554   3.349  0.0876  0.0559  0.1504
 1299SOL    HW1 4032   3.446   1.558   3.332 -0.0457  1.5206  1.0219
 1299SOL    HW2 4033   3.566   1.646   3.363  1.7722 -0.2464 -0.7081
 1300SOL     OW 4034   2.557   3.887   3.967  0.9230 -0.2789  0.0890
 1300SOL    HW1 4035   2.514   3.808   3.999  0.5363 -0.6295 -1.2387
 1300SOL    HW2 4036   2.600   3.860   3.886 -1.3552  1.3854 -1.8161
 1301SOL     OW 4037   1.466   0.978   4.451  0.1389  0.3198  0.5969
 1301SOL    HW1 4038   1.376   0.946   4.450 -0.8986  3.0131  1.0657
 1301SOL    HW2 4039   1.496   0.962   4.541 -0.9031  1.9527  1.2726
 1302SOL     OW 4040   4.006   0.174   3.297  0.2849  0.2266 -0.0251
 1302SOL    HW1 4041   4.067   0.100   3.291 -0.7559 -0.7144  0.6750
 1302SOL    HW2 4042   3.935   0.153   3.236 -1.5685 -0.9249  2.3637
 1303SOL     OW 4043   2.718   2.910   2.600  0.8078 -0.0698 -0.4136
 1303SOL    HW1 4044   2.726   2.816   2.615  1.7396  0.1447  0.5609
 1303SOL    HW2 4045   2.729   2.921   2.506  4.3086 -0.6312 -0.1928
 1304SOL     OW 4046   0.444   4.269   3.647  0.1668 -0.3962  0.7405
 1304SOL    HW1 4047   0.497   4.328   3.700 -0.6979 -0.2324  1.4377
 1304SOL    HW2 4048   0.460   4.297   3.557 -2.3450  2.7714  1.1351
 1305SOL     OW 4049   3.134   4.982   2.509 -0.5669  0.0324 -0.2289
 1305SOL    HW1 4050   3.065   4.920   2.488 -1.3036  0.6063  0.4652
 1305SOL    HW2 4051   3.127   5.050   2.441 -1.2653  0.5477  0.3535
 1306SOL     OW 4052   3.166   0.108   2.713 -0.5444 -0.6448  0.1860
 1306SOL    HW1 4053   3.086   0.108   2.767 -0.5487  0.4169  0.2053
 1306SOL    HW2 4054   3.144   0.054   2.638 -0.9543 -1.1559  0.6615
 1307SOL     OW 4055   1.316   4.658   3.879  0.0243 -0.0800 -0.0054
 1307SOL    HW1 4056   1.399   4.614   3.897  0.0875 -0.0174 -0.1408
 1307SOL    HW2 4057   1.321   4.740   3.929 -0.7404 -0.9122  1.5075
 1308SOL     OW 4058   1.458   2.485   1.226 -0.0760 -0.0923  0.2655
 1308SOL    HW1 4059   1.387   2.433   1.265  1.4936 -1.3417  1.5755
 1308SOL    HW2 4060   1.415   2.564   1.195 -1.9339 -0.4765  1.6819
 1309SOL     OW 4061   0.496   0.708   4.890  0.5253 -0.2726 -0.0904
 1309SOL    HW1 4062   0.416   0.734   4.936 -0.3951 -0.3992 -1.5695
 1309SOL    HW2 4063   0.483   0.615   4.871  0.5889 -0.0744 -1.1628
 1310SOL     OW 4064   4.651   1.502   2.727 -0.6493 -0.5123  0.3589
 1310SOL    HW1 4065   4.704   1.582   2.728 -0.6757 -0.4775  1.9318
 1310SOL    HW2 4066   4.563   1.531   2.704 -0.8737  0.0929  1.8663
 1311SOL     OW 4067   3.754   1.112   3.846  0.4920 -0.1676  0.0383
 1311SOL    HW1 4068   3.728   1.081   3.760 -1.3806  0.4531  0.3391
 1311SOL    HW2 4069   3.745   1.036   3.903 -0.2662 -0.0771  0.0492
 1312SOL     OW 4070   0.373   1.532   3.662  0.0337  0.0284 -0.1019
 1312SOL    HW1 4071   0.367   1.463   3.595 -1.1180 -0.3232  0.3394
 1312SOL    HW2 4072   0.467   1.544   3.675  0.2647 -0.8502 -0.8136
 1313SOL     OW 4073   2.023   0.974   1.796 -0.4411  0.3935  0.6872
 1313SOL    HW1 4074   2.003   0.991   1.704 -0.5747 -1.8878  0.2252
 1313SOL    HW2 4075   1.957   1.024   1.845 -0.5325  1.4301 -0.4372
 1314SOL     OW 4076   3.533   0.547   4.827  0.1017  0.1064  0.5911
 1314SOL    HW1 4077   3.489   0.512   4.904  3.3684 -1.6105  1.8452
 1314SOL    HW2 4078   3.497   0.497   4.754 -2.6187  1.3582  0.9705
 1315SOL     OW 4079   2.851   1.978   0.643  0.3419 -0.1882  0.5134
 1315SOL    HW1 4080   2.810   2.010   0.563  1.0887 -0.1756  0.1262
 1315SOL    HW2 4081   2.784   1.989   0.710  0.2996  1.4732  0.2498
 1316SOL     OW 4082   3.486   3.888   1.631 -0.1378  0.1070 -0.4967
 1316SOL    HW1 4083   3.537   3.841   1.565  0.6625 -0.5922  0.5814
 1316SOL    HW2 4084   3.537   3.879   1.711 -1.6869 -0.1363  0.5034
 1317SOL     OW 4085   3.858   1.820   0.687 -0.7221  0.0669 -0.1577
 1317SOL    HW1 4086   3.770   1.858   0.684 -1.3956 -1.4346 -2.6584
 1317SOL    HW2 4087   3.863   1.765   0.608  0.9386 -3.2187  1.9866
 1318SOL     OW 4088   2.063   3.249   1.793 -0.5414 -0.0387 -0.8328
 1318SOL    HW1 4089   2.020   3.324   1.752  0.6525  1.1052 -0.1010
 1318SOL    HW2 4090   2.144   3.285   1.830  0.0159 -1.6732 -0.3456
 1319SOL     OW 4091   1.183   3.704   4.227 -0.0667  0.4171  0.3409
 1319SOL    HW1 4092   1.140   3.702   4.142  1.5566  0.0532 -0.4918
 1319SOL    HW2 4093   1.156   3.622   4.269  0.2997 -0.1133 -0.4338
 1320SOL     OW 4094   0.388   1.559   1.886  0.0566  0.0849  0.2799
 1320SOL    HW1 4095   0.318   1.620   1.907 -0.6669 -0.7589  0.4085
 1320SOL    HW2 4096   0.419   1.586   1.800 -1.4677 -0.4190 -0.4671
 1321SOL     OW 4097   1.847   3.409   0.371  0.4861  0.4791 -0.2706
 1321SOL    HW1 4098   1.844   3.414   0.466 -0.6515  0.7042 -0.3005
 1321SOL    HW2 4099   1.913   3.473   0.346  1.2672 -0.0451  0.3827
 1322SOL     OW 4100   0.693   3.958   0.030  0.2366 -0.1072  0.1372
 1322SOL    HW1 4101   0.683   3.863   0.030 -1.1114 -0.0056 -1.4488
 1322SOL    HW2 4102   0.739   3.977   0.112  1.4841 -2.1976 -0.0024
 1323SOL     OW 4103   0.947   4.763   3.335  0.1703  0.1302  0.9417
 1323SOL    HW1 4104   0.905   4.812   3.263  0.6751  0.1457  0.6541
 1323SOL    HW2 4105   0.972   4.679   3.295  0.7604  0.2715  1.0071
 1324SOL     OW 4106   0.792   0.461   4.203  0.1482 -0.1884 -0.7676
 1324SOL    HW1 4107   0.842   0.398   4.150 -1.7239 -1.9646 -0.5323
 1324SOL    HW2 4108   0.832   0.545   4.183  2.4506 -1.3669 -1.4747
 1325SOL     OW 4109   0.635   0.981   1.265  0.2193  0.1135 -0.2170
 1325SOL    HW1 4110   0.618   1.026   1.348  0.4938 -0.3773  0.1080
 1325SOL    HW2 4111   0.586   1.031   1.200 -0.6474  0.0333  0.3634
 1326SOL     OW 4112   0.030   0.376   1.079 -0.3920 -0.1767  0.2957
 1326SOL    HW1 4113   0.084   0.300   1.101  0.3308  0.1465 -0.2902
 1326SOL    HW2 4114   0.068   0.447   1.131 -0.4708 -0.0185  0.1362
 1327SOL     OW 4115   3.373   1.191   2.166  0.5140  0.3479 -0.8622
 1327SOL    HW1 4116   3.297   1.200   2.109 -0.1337  1.1404  0.0780
 1327SOL    HW2 4117   3.365   1.264   2.228  1.7842  0.1625 -0.4410
 1328SOL     OW 4118   2.013   0.535   4.448 -0.9312 -0.0187  0.0187
 1328SOL    HW1 4119   1.968   0.558   4.366  0.9774 -0.1931 -1.1486
 1328SOL    HW2 4120   2.101   0.572   4.438 -0.9885  0.9359  2.5239
 1329SOL     OW 4121   0.720   4.923   4.396 -0.1965  0.4355 -0.0651
 1329SOL    HW1 4122   0.702   4.854   4.332 -0.3055 -0.2120  0.6498
 1329SOL    HW2 4123   0.787   4.886   4.454  0.6608  1.4013 -0.4086
 1330SOL     OW 4124   0.492   0.893   0.636 -0.0524 -0.1491 -0.2469
 1330SOL    HW1 4125   0.416   0.836   0.644 -1.2498  1.5704  1.4262
 1330SOL    HW2 4126   0.459   0.981   0.654  2.3915  0.6147  0.9540
 1331SOL     OW 4127   3.587   0.757   5.002  0.5411 -0.2286 -0.1028
 1331SOL    HW1 4128   3.504   0.771   4.957 -0.9026 -0.2424  2.4057
 1331SOL    HW2 4129   3.626   0.682   4.957 -1.6069 -1.3087 -0.2492
 1332SOL     OW 4130   0.983   2.210   0.060  0.6545 -0.1326 -0.0511
 1332SOL    HW1 4131   0.928   2.287   0.050  0.1315 -0.4247  0.4594
 1332SOL    HW2 4132   1.065   2.243   0.098  0.1631  0.0861  0.8529
 1333SOL     OW 4133   2.046   1.418   4.857 -0.1034  0.0595 -0.2801
 1333SOL    HW1 4134   2.098   1.498   4.866  0.3886 -0.3897  1.3250
 1333SOL    HW2 4135   2.078   1.362   4.928 -0.5821 -1.4837 -1.2561
 1334SOL     OW 4136   3.200   3.273   2.008 -0.3902 -0.2442 -0.0748
 1334SOL    HW1 4137   3.207   3.238   2.097 -2.9451 -1.2354 -0.1746
 1334SOL    HW2 4138   3.244   3.207   1.953  0.0567 -0.2685  0.3010
 1335SOL     OW 4139   3.109   1.894   2.272  0.7478  0.6005  0.1096
 1335SOL    HW1 4140   3.071   1.809   2.296  1.0281  0.6900  0.9131
 1335SOL    HW2 4141   3.171   1.912   2.342 -0.2464  2.0817  0.6550
 1336SOL     OW 4142   0.528   2.364   3.721 -0.0536  0.1067  0.3788
 1336SOL    HW1 4143   0.462   2.312   3.674 -1.9218  1.5479  1.2932
 1336SOL    HW2 4144   0.606   2.358   3.666 -1.0462 -1.3252 -0.9727
 1337SOL     OW 4145   3.030   1.686   2.407 -0.5085  0.6919 -0.0640
 1337SOL    HW1 4146   3.007   1.746   2.478 -1.2591  0.7104 -0.3251
 1337SOL    HW2 4147   3.000   1.601   2.438  1.3855  0.2431  0.7258
 1338SOL     OW 4148   2.902   0.407   2.986 -0.2383 -0.0531  0.3388
 1338SOL    HW1 4149   2.944   0.455   2.914 -1.3009 -1.1431 -1.0768
 1338SOL    HW2 4150   2.825   0.459   3.009  1.0533  1.2301  1.9868
 1339SOL     OW 4151   3.736   4.990   1.550  0.4526 -0.4756 -0.1012
 1339SOL    HW1 4152   3.724   5.075   1.593  1.5557 -0.5563  0.3901
 1339SOL    HW2 4153   3.830   4.984   1.532  0.8068 -2.5216  1.9012
 1340SOL     OW 4154   3.828   4.143   2.628  0.3590  0.2027 -0.3696
 1340SOL    HW1 4155   3.923   4.133   2.620  0.7449  2.2347  1.0408
 1340SOL    HW2 4156   3.803   4.194   2.552  0.4337 -0.0793 -0.5863
 1341SOL     OW 4157   2.263   1.155   3.539 -0.2630 -0.1742  0.3114
 1341SOL    HW1 4158   2.337   1.176   3.595  0.3573 -0.8178 -0.2483
 1341SOL    HW2 4159   2.266   1.060   3.529 -0.6490 -0.1202 -0.4144
 1342SOL     OW 4160   1.343   0.613   3.712 -0.9867 -0.2529  0.0252
 1342SOL    HW1 4161   1.305   0.626   3.799 -1.6773 -0.8311 -0.1857
 1342SOL    HW2 4162   1.395   0.692   3.697  0.1268 -0.6579  1.4621
 1343SOL     OW 4163   3.877   2.776   4.618 -0.2454 -0.4690 -0.6230
 1343SOL    HW1 4164   3.816   2.791   4.689 -0.6659 -1.8215 -0.6799
 1343SOL    HW2 4165   3.824   2.738   4.547  0.8960 -3.4482 -0.0129
 1344SOL     OW 4166   0.567   2.163   4.197  0.1123 -0.4706  0.0232
 1344SOL    HW1 4167   0.553   2.157   4.102 -0.1509  0.1769  0.0207
 1344SOL    HW2 4168   0.609   2.248   4.209 -0.5061 -0.2358  0.5636
 1345SOL     OW 4169   2.031   1.786   3.583 -0.1357  0.3337  0.3929
 1345SOL    HW1 4170   2.088   1.859   3.557 -0.5407  0.6931  0.4839
 1345SOL    HW2 4171   2.072   1.751   3.662 -0.5704  1.2317  1.0328
 1346SOL     OW 4172   1.335   3.149   1.341 -0.4109  0.2606  0.3273
 1346SOL    HW1 4173   1.288   3.187   1.267 -0.9902 -0.0854  0.5088
 1346SOL    HW2 4174   1.291   3.184   1.418 -0.7767 -0.5460  0.5004
 1347SOL     OW 4175   1.497   3.603   4.132  0.3417  0.1415  0.1735
 1347SOL    HW1 4176   1.482   3.558   4.049 -6.1875 -1.6029  1.7376
 1347SOL    HW2 4177   1.476   3.695   4.113  1.3551  0.2579 -0.4873
 1348SOL     OW 4178   3.831   1.504   2.893 -0.1529  0.5578  0.3587
 1348SOL    HW1 4179   3.761   1.563   2.921 -0.6931 -0.3122  0.8797
 1348SOL    HW2 4180   3.811   1.484   2.802  0.5719  1.9177 -0.1358
 1349SOL     OW 4181   3.097   1.568   3.567 -0.4111 -0.2896  0.1527
 1349SOL    HW1 4182   3.008   1.597   3.547  0.2974  1.6558 -0.3970
 1349SOL    HW2 4183   3.149   1.599   3.493  0.6973 -1.6678  0.3199
 1350SOL     OW 4184   1.080   4.485   4.360 -0.3140  0.0528  0.4044
 1350SOL    HW1 4185   1.098   4.481   4.266 -0.6648  1.9460  0.2153
 1350SOL    HW2 4186   1.158   4.450   4.401 -0.2742 -1.1036 -0.5792
 1351SOL     OW 4187   3.028   0.584   1.805  0.0894 -0.2155  0.2668
 1351SOL    HW1 4188   3.114   0.572   1.846 -0.5163  2.1789  2.4971
 1351SOL    HW2 4189   3.042   0.653   1.740 -0.0835  0.0596  0.5170
 1352SOL     OW 4190   1.129   3.511   0.042 -0.4228  0.3406 -0.1024
 1352SOL    HW1 4191   1.089   3.441  -0.008  0.6596 -0.5892  0.2863
 1352SOL    HW2 4192   1.098   3.497   0.132  0.1030  0.1230  0.0463
 1353SOL     OW 4193   0.671   0.077   0.670  0.4926  0.0171 -0.2762
 1353SOL    HW1 4194   0.743   0.110   0.616  1.8961 -3.9756 -1.1659
 1353SOL    HW2 4195   0.714   0.042   0.748 -0.9707  0.8027  0.9418
 1354SOL     OW 4196   2.056   3.134   1.106  0.3506  0.7246 -0.2235
 1354SOL    HW1 4197   2.150   3.122   1.089  0.2729 -0.9159  0.3293
 1354SOL    HW2 4198   2.013   3.068   1.052 -0.6166  2.1969 -1.3601
 1355SOL     OW 4199   2.868   2.945   3.415 -0.4721 -0.1386 -0.3148
 1355SOL    HW1 4200   2.963   2.954   3.419 -0.4462 -0.8427  1.7465
 1355SOL    HW2 4201   2.835   3.033   3.436 -0.2956 -0.0381 -0.4489
 1356SOL     OW 4202   3.625   2.183   1.261  0.1341 -0.1162 -0.1042
 1356SOL    HW1 4203   3.629   2.209   1.169 -0.7995  0.2041 -0.0605
 1356SOL    HW2 4204   3.537   2.147   1.272  0.1193  0.1679  0.7513
 1357SOL     OW 4205   0.341   3.177   0.238  0.3274 -0.1247  0.0473
 1357SOL    HW1 4206   0.287   3.250   0.207  2.0195  0.8666 -0.6395
 1357SOL    HW2 4207   0.418   3.218   0.277  0.5954 -1.5153  1.0603
 1358SOL     OW 4208   4.854   1.365   0.962  0.1436 -0.5197 -0.5554
 1358SOL    HW1 4209   4.813   1.279   0.956  0.8452 -0.9664  0.6951
 1358SOL    HW2 4210   4.803   1.412   1.027  0.3285 -0.3215 -0.5497
 1359SOL     OW 4211   3.985   3.226   1.923  0.0067  0.2989 -0.2841
 1359SOL    HW1 4212   3.893   3.215   1.896 -0.1398 -2.6088  0.9996
 1359SOL    HW2 4213   3.980   3.281   2.001 -0.7771 -0.4083  0.1944
 1360SOL     OW 4214   1.396   2.725   2.659 -0.0670 -0.6570  0.2907
 1360SOL    HW1 4215   1.474   2.673   2.643  0.0705 -0.5577  0.6272
 1360SOL    HW2 4216   1.323   2.664   2.642  0.0907 -1.4648  2.1731
 1361SOL     OW 4217   4.972   4.482   0.394 -0.0158  0.4469 -0.6029
 1361SOL    HW1 4218   4.893   4.430   0.378  1.3898 -1.5796 -1.4074
 1361SOL    HW2 4219   4.993   4.520   0.308 -1.3414  2.9702  0.0843
 1362SOL     OW 4220   3.995   2.782   0.543  0.3519  0.5231  0.5088
 1362SOL    HW1 4221   4.072   2.746   0.498 -0.1632  0.6295 -0.4894
 1362SOL    HW2 4222   3.930   2.712   0.540  0.4282  0.4052  1.4180
 1363SOL     OW 4223   2.795   2.847   0.190 -0.3359 -0.3527  0.2406
 1363SOL    HW1 4224   2.869   2.788   0.178 -0.1105  0.0865 -0.5586
 1363SOL    HW2 4225   2.833   2.929   0.222 -0.7656 -0.9838  2.5132
 1364SOL     OW 4226   3.421   4.133   1.516  0.4520  0.0298 -0.6128
 1364SOL    HW1 4227   3.439   4.048   1.557 -1.0484 -0.8638 -1.6804
 1364SOL    HW2 4228   3.355   4.113   1.450 -3.5238  2.7152  2.1302
 1365SOL     OW 4229   2.113   1.859   4.807  0.5302 -0.2999 -0.2356
 1365SOL    HW1 4230   2.052   1.903   4.748 -0.7771  0.1017  1.3357
 1365SOL    HW2 4231   2.164   1.930   4.847  0.6395 -0.4687 -0.0723
 1366SOL     OW 4232   1.421   0.208   2.817  0.5872 -0.0846  0.3619
 1366SOL    HW1 4233   1.469   0.274   2.767  1.2299 -1.0919 -0.4019
 1366SOL    HW2 4234   1.330   0.238   2.815  0.5625 -0.1607 -1.5611
 1367SOL     OW 4235   4.703   4.474   2.124 -0.0508  0.4170  0.2417
 1367SOL    HW1 4236   4.789   4.487   2.164 -0.4693  0.0720  1.2909
 1367SOL    HW2 4237   4.653   4.552   2.148  0.0702  0.7793 -0.6620
 1368SOL     OW 4238   0.473   2.376   2.888  0.5802  0.4412 -0.3328
 1368SOL    HW1 4239   0.383   2.408   2.882  0.6922  0.8442  0.0328
 1368SOL    HW2 4240   0.519   2.445   2.936  1.6606  1.4655 -2.6486
 1369SOL     OW 4241   1.845   2.321   4.092  0.4539  0.5759 -0.0736
 1369SOL    HW1 4242   1.923   2.266   4.083 -2.1366 -3.7337  0.8619
 1369SOL    HW2 4243   1.805   2.320   4.005  0.3972  1.0560 -0.0573
 1370SOL     OW 4244   3.771   0.439   1.458 -0.2445 -0.2362  0.2503
 1370SOL    HW1 4245   3.849   0.408   1.504 -0.6338 -0.0446  1.0586
 1370SOL    HW2 4246   3.797   0.443   1.366  1.2572  1.5007  0.6942
 1371SOL     OW 4247   4.287   3.509   1.323 -0.3706 -0.2753 -0.4245
 1371SOL    HW1 4248   4.220   3.441   1.330 -1.5957  0.8768 -0.4728
 1371SOL    HW2 4249   4.341   3.498   1.402 -0.3326 -1.4860 -0.5952
 1372SOL     OW 4250   0.642   1.596   2.118 -0.1649 -0.0986  0.4242
 1372SOL    HW1 4251   0.688   1.679   2.124  1.5618 -0.8295 -1.4033
 1372SOL    HW2 4252   0.590   1.591   2.198  2.4372  1.1163  2.3543
 1373SOL     OW 4253   2.006   1.046   3.802 -0.6154 -0.7871 -0.2656
 1373SOL    HW1 4254   2.076   1.009   3.856 -1.1948 -0.4127  0.7736
 1373SOL    HW2 4255   2.039   1.133   3.777  0.0999 -1.3661 -1.4352
 1374SOL     OW 4256   3.317   0.855   1.909  0.1453  0.2192  0.1283
 1374SOL    HW1 4257   3.235   0.905   1.899 -0.9601 -1.2051  1.4359
 1374SOL    HW2 4258   3.318   0.796   1.834  1.0795  1.6346 -1.0207
 1375SOL     OW 4259   4.177   1.694   4.085 -0.2055  0.1957 -0.5992
 1375SOL    HW1 4260   4.268   1.673   4.061 -0.4878  0.0029 -1.5184
 1375SOL    HW2 4261   4.145   1.615   4.128  0.3694  0.6199  0.6901
 1376SOL     OW 4262   1.429   3.614   2.479  0.7477 -0.4162  0.5845
 1376SOL    HW1 4263   1.416   3.549   2.548  0.9900  1.1380  2.1872
 1376SOL    HW2 4264   1.415   3.566   2.397 -2.6936 -1.6633  1.7283
 1377SOL     OW 4265   3.239   0.816   4.964  0.2218 -0.4640  0.1266
 1377SOL    HW1 4266   3.273   0.766   5.038  2.9150 -0.7490 -1.1835
 1377SOL    HW2 4267   3.173   0.758   4.925  0.2520 -1.1768  1.1002
 1378SOL     OW 4268   2.888   2.310   1.652 -0.5646 -0.1957  0.4167
 1378SOL    HW1 4269   2.888   2.249   1.727 -0.0997  0.6936  1.1564
 1378SOL    HW2 4270   2.945   2.269   1.587 -0.0701 -0.4484  1.0006
 1379SOL     OW 4271   1.914   0.476   3.237 -0.4626 -0.2927 -0.0311
 1379SOL    HW1 4272   1.952   0.431   3.161 -0.1409  1.9208 -1.2811
 1379SOL    HW2 4273   1.985   0.529   3.272 -0.4369 -1.7198  2.2767
 1380SOL     OW 4274   0.395   0.465   2.707  0.4117 -0.4525  0.5515
 1380SOL    HW1 4275   0.432   0.541   2.662 -1.3704  0.1451  0.0190
 1380SOL    HW2 4276   0.402   0.487   2.800 -1.2080  0.9495  0.3754
 1381SOL     OW 4277   1.850   2.001   3.029  0.1760 -0.0643 -0.1635
 1381SOL    HW1 4278   1.785   2.014   3.098 -0.4941 -2.8549 -0.1729
 1381SOL    HW2 4279   1.911   1.937   3.066  2.0025  1.1889 -0.8210
 1382SOL     OW 4280   2.665   3.629   2.693 -0.3609 -0.5937  0.3286
 1382SOL    HW1 4281   2.599   3.613   2.760  0.9618 -1.9751  1.3658
 1382SOL    HW2 4282   2.709   3.709   2.721  0.6676 -1.5476  1.5876
 1383SOL     OW 4283   2.320   3.999   4.948 -0.0095 -0.7016 -0.8966
 1383SOL    HW1 4284   2.367   4.039   4.874 -0.4739 -1.9299 -1.8932
 1383SOL    HW2 4285   2.387   3.986   5.014  0.5771 -0.2612 -1.3853
 1384SOL     OW 4286   3.112   4.096   3.009  0.4620 -0.1438  0.3620
 1384SOL    HW1 4287   3.031   4.137   2.979  0.9857  0.6887  0.0352
 1384SOL    HW2 4288   3.158   4.071   2.928  0.0640 -1.5602  0.5666
 1385SOL     OW 4289   1.776   3.609   4.851 -0.2162 -0.1266 -0.2776
 1385SOL    HW1 4290   1.749   3.695   4.883  0.1055  0.2602 -1.0211
 1385SOL    HW2 4291   1.731   3.600   4.767  1.4835  0.2769 -1.2637
 1386SOL     OW 4292   2.437   2.940   1.645 -0.2052  0.2214  0.4783
 1386SOL    HW1 4293   2.403   3.029   1.649  0.1769  0.4187 -0.4742
 1386SOL    HW2 4294   2.375   2.893   1.588  0.9836  0.5439 -1.1437
 1387SOL     OW 4295   4.257   1.167   1.527 -0.1412  0.4874 -0.2098
 1387SOL    HW1 4296   4.253   1.204   1.615 -0.7552  0.1901 -0.1075
 1387SOL    HW2 4297   4.283   1.076   1.540 -0.4162  0.3929 -0.3215
 1388SOL     OW 4298   1.167   2.498   4.348  0.2650  0.2937  0.0076
 1388SOL    HW1 4299   1.234   2.485   4.416 -0.8157  2.0914  1.4950
 1388SOL    HW2 4300   1.121   2.578   4.374 -0.1260  1.1396 -2.9483
 1389SOL     OW 4301   4.243   0.125   4.077 -0.3530 -0.0576 -0.4433
 1389SOL    HW1 4302   4.224   0.097   4.166 -0.2315 -0.9154 -0.6783
 1389SOL    HW2 4303   4.338   0.112   4.068 -0.5397 -1.1438 -1.0732
 1390SOL     OW 4304   4.658   4.724   3.297  0.0268 -0.2859  0.2897
 1390SOL    HW1 4305   4.662   4.630   3.280 -0.4254 -0.4150  0.8403
 1390SOL    HW2 4306   4.637   4.763   3.212 -1.5833 -0.8499  0.3826
 1391SOL     OW 4307   3.387   1.810   1.445 -0.3268 -0.0248 -0.2187
 1391SOL    HW1 4308   3.396   1.848   1.532 -1.2843 -1.9196  0.7825
 1391SOL    HW2 4309   3.449   1.737   1.444  1.1323  1.1374 -1.9024
 1392SOL     OW 4310   4.141   3.807   1.998  0.5878 -0.3146  0.3198
 1392SOL    HW1 4311   4.227   3.804   1.956  0.6683 -1.5695  0.5231
 1392SOL    HW2 4312   4.139   3.891   2.043  1.0036  0.5083 -1.1143
 1393SOL     OW 4313   3.105   4.659   0.919  0.2554 -0.4485  0.0034
 1393SOL    HW1 4314   3.173   4.645   0.985  1.0647 -1.2414 -0.9463
 1393SOL    HW2 4315   3.058   4.737   0.949  2.0849  0.6149  0.3201
 1394SOL     OW 4316   3.572   2.031   0.090 -0.4005 -0.4073  0.1302
 1394SOL    HW1 4317   3.499   1.997   0.037 -0.0371  2.0359 -2.1531
 1394SOL    HW2 4318   3.536   2.037   0.178 -2.3902 -0.9083 -0.5853
 1395SOL     OW 4319   2.143   3.282   0.546 -0.4171 -0.0271  0.0250
 1395SOL    HW1 4320   2.096   3.365   0.541 -1.1466 -0.4951 -2.2938
 1395SOL    HW2 4321   2.129   3.241   0.460  2.5091 -1.1419 -0.0469
 1396SOL     OW 4322   0.851   4.773   4.609 -0.4200  0.0946  0.4100
 1396SOL    HW1 4323   0.827   4.684   4.584 -0.2393  0.6867 -2.1513
 1396SOL    HW2 4324   0.946   4.777   4.596 -0.5596  0.9225 -0.4259
 1397SOL     OW 4325   3.721   5.041   3.691 -0.1539 -0.5135 -0.1144
 1397SOL    HW1 4326   3.642   5.065   3.740 -0.7923 -2.0191 -0.3631
 1397SOL    HW2 4327   3.728   4.947   3.703  0.9330 -0.5681 -1.1087
 1398SOL     OW 4328   4.013   0.251   4.862  0.6065  0.3275 -0.0938
 1398SOL    HW1 4329   3.954   0.262   4.936  2.1887 -0.8213  1.4318
 1398SOL    HW2 4330   3.964   0.282   4.787 -1.9428 -0.6202  1.0681
 1399SOL     OW 4331   1.189   4.856   2.643  0.3770  0.6358 -0.3340
 1399SOL    HW1 4332   1.234   4.784   2.688  2.6184  0.1677 -3.0654
 1399SOL    HW2 4333   1.258   4.922   2.629 -0.2410  0.8672 -2.7313
 1400SOL     OW 4334   2.875   4.360   0.096  0.3738 -1.0682  0.3310
 1400SOL    HW1 4335   2.781   4.367   0.111  0.1979 -2.1520 -0.1499
 1400SOL    HW2 4336   2.908   4.449   0.105 -1.0319 -0.2714 -1.7463
 1401SOL     OW 4337   0.066   2.550   0.811  0.1609  0.2574 -0.2359
 1401SOL    HW1 4338   0.049   2.465   0.851 -0.6632 -0.2804 -1.6411
 1401SOL    HW2 4339  -0.011   2.567   0.757  0.5925  1.6099 -0.4765
 1402SOL     OW 4340   1.513   1.182   0.141  0.1954 -0.1499 -0.3900
 1402SOL    HW1 4341   1.598   1.186   0.183 -0.8555 -0.9627  1.9881
 1402SOL    HW2 4342   1.517   1.105   0.085  0.4189 -1.3811  1.2584
 1403SOL     OW 4343   0.209   1.884   0.546 -0.1144 -0.7563  0.4555
 1403SOL    HW1 4344   0.193   1.930   0.628 -0.1754 -1.3636  0.7896
 1403SOL    HW2 4345   0.153   1.806   0.551 -1.2472 -0.0592 -0.8087
 1404SOL     OW 4346   4.672   4.614   2.667  0.3448  0.3410 -0.2267
 1404SOL    HW1 4347   4.708   4.538   2.713  0.6019  1.1812  1.0257
 1404SOL    HW2 4348   4.593   4.582   2.625 -0.6393 -0.1971  1.9260
 1405SOL     OW 4349   1.486   3.681   3.001 -0.8641 -0.0981  0.4689
 1405SOL    HW1 4350   1.434   3.621   2.948  0.1035 -2.1724  1.7291
 1405SOL    HW2 4351   1.422   3.725   3.057 -1.4506 -1.5848  1.0300
 1406SOL     OW 4352   2.293   3.270   3.331 -0.0568  0.0335 -0.1464
 1406SOL    HW1 4353   2.275   3.244   3.422  2.0705  1.1373  0.6696
 1406SOL    HW2 4354   2.225   3.227   3.280 -1.9385  0.1732  2.0653
 1407SOL     OW 4355   1.890   3.667   2.589  0.8542 -0.0443 -0.1177
 1407SOL    HW1 4356   1.799   3.656   2.615  0.8496  1.2752  0.4830
 1407SOL    HW2 4357   1.937   3.601   2.640  0.1736 -1.2411 -0.9896
 1408SOL     OW 4358   2.127   2.919   0.921 -0.5829 -0.3823  0.9213
 1408SOL    HW1 4359   2.218   2.907   0.948 -0.1831 -0.7631 -0.5402
 1408SOL    HW2 4360   2.130   2.991   0.858 -1.5656  0.8064  2.1511
 1409SOL     OW 4361   4.265   3.141   4.499  0.2690  0.3203  0.0479
 1409SOL    HW1 4362   4.187   3.102   4.537  1.5095 -0.1991  2.2602
 1409SOL    HW2 4363   4.326   3.068   4.487 -0.4072  0.2112 -4.2893
 1410SOL     OW 4364   3.676   3.378   1.002  0.5876 -0.1816  0.0991
 1410SOL    HW1 4365   3.738   3.305   1.005  2.2410  1.1562 -0.1572
 1410SOL    HW2 4366   3.605   3.347   0.946  0.2134 -2.3239  1.6480
 1411SOL     OW 4367   3.554   2.101   3.098  0.2932 -0.0163  0.0329
 1411SOL    HW1 4368   3.540   2.194   3.113 -0.5928 -0.0837 -0.3323
 1411SOL    HW2 4369   3.523   2.086   3.008  3.9589  0.0724 -1.4172
 1412SOL     OW 4370   0.027   2.128   0.017  0.3469  0.0052  0.5198
 1412SOL    HW1 4371  -0.017   2.047   0.043  1.4913  0.2001  3.5030
 1412SOL    HW2 4372   0.117   2.102   0.000  0.3771  0.4445 -0.0193
 1413SOL     OW 4373   1.296   1.155   1.537 -0.2467 -0.4274  0.1588
 1413SOL    HW1 4374   1.284   1.174   1.630  0.1668 -0.9394  0.3163
 1413SOL    HW2 4375   1.353   1.224   1.505  0.5958 -0.9331  0.5548
 1414SOL     OW 4376   1.723   1.313   1.361  0.2559 -0.2370 -0.7704
 1414SOL    HW1 4377   1.643   1.315   1.308  0.0726  1.5797 -0.4975
 1414SOL    HW2 4378   1.787   1.364   1.311  0.3634  0.7017  0.2723
 1415SOL     OW 4379   4.245   0.589   4.420  0.6060 -0.0372 -0.3806
 1415SOL    HW1 4380   4.192   0.523   4.375  0.1299 -0.6283  0.9818
 1415SOL    HW2 4381   4.181   0.651   4.454  0.7798 -0.5103  0.8888
 1416SOL     OW 4382   2.057   0.345   1.992 -0.4304  0.0034  0.0119
 1416SOL    HW1 4383   2.078   0.434   2.021 -0.5756 -0.6477  2.3610
 1416SOL    HW2 4384   1.962   0.347   1.977 -0.4781  0.2061  0.3122
 1417SOL     OW 4385   3.979   0.571   1.980 -0.1444 -0.3826 -0.3158
 1417SOL    HW1 4386   3.978   0.600   1.889 -0.5056  0.1102 -0.1598
 1417SOL    HW2 4387   4.070   0.543   1.995 -0.6778 -3.1351 -1.6235
 1418SOL     OW 4388   2.977   2.466   2.539 -0.0594  0.3679 -0.0199
 1418SOL    HW1 4389   2.925   2.399   2.584 -0.2176 -0.1882 -1.0043
 1418SOL    HW2 4390   2.974   2.440   2.447  1.4249  0.6930 -0.1775
 1419SOL     OW 4391   4.234   3.331   4.290 -0.4286  0.5814 -0.1584
 1419SOL    HW1 4392   4.223   3.257   4.349  0.3572  1.6244  1.3763
 1419SOL    HW2 4393   4.321   3.365   4.310  0.2953  0.3757 -2.6840
 1420SOL     OW 4394   2.044   0.045   0.065  0.0354 -0.4700 -0.0527
 1420SOL    HW1 4395   1.999   0.108   0.009  3.5535  1.2481 -1.2320
 1420SOL    HW2 4396   2.038   0.082   0.153 -1.0932 -0.4857 -0.1101
 1421SOL     OW 4397   3.019   3.233   3.820 -0.1736 -0.4668 -0.4049
 1421SOL    HW1 4398   3.028   3.291   3.744  0.9290 -1.9003 -1.4282
 1421SOL    HW2 4399   2.952   3.170   3.794  1.0057 -1.6503 -0.6905
 1422SOL     OW 4400   3.133   1.027   0.903 -0.1703 -0.0661  0.2906
 1422SOL    HW1 4401   3.100   0.973   0.831 -2.0132  0.3900  0.7349
 1422SOL    HW2 4402   3.153   1.112   0.862 -1.5298  0.2986  0.3318
 1423SOL     OW 4403   3.800   2.314   1.997  0.0062 -0.7737  0.4324
 1423SOL    HW1 4404   3.765   2.297   1.910 -2.4645  0.4240  1.1082
 1423SOL    HW2 4405   3.789   2.231   2.044 -1.5968 -0.5787  0.4720
 1424SOL     OW 4406   3.598   3.947   5.017 -0.5628  0.0812  0.0154
 1424SOL    HW1 4407   3.515   3.988   5.044  0.0314  1.8072 -0.6016
 1424SOL    HW2 4408   3.603   3.964   4.923 -0.6409 -2.1874 -0.4362
 1425SOL     OW 4409   2.585  -0.006   2.573 -0.1554 -0.4785 -0.3780
 1425SOL    HW1 4410   2.668   0.032   2.603  0.0614 -1.2199 -0.0177
 1425SOL    HW2 4411   2.587   0.006   2.478  0.9738 -1.6234 -0.5316
 1426SOL     OW 4412   4.491   2.246   4.557  0.1523 -0.1318 -0.0865
 1426SOL    HW1 4413   4.519   2.286   4.475  0.6077  0.0014  0.1262
 1426SOL    HW2 4414   4.564   2.189   4.582 -0.6265 -1.3689 -0.5552
 1427SOL     OW 4415   3.329   4.682   2.047  0.4926  0.2210 -0.4059
 1427SOL    HW1 4416   3.396   4.717   2.106  3.4754 -1.2362 -2.6711
 1427SOL    HW2 4417   3.378   4.635   1.980 -2.8531 -0.7772 -2.3917
 1428SOL     OW 4418   4.953   2.084   1.144 -0.3773 -0.1766 -0.3914
 1428SOL    HW1 4419   4.881   2.114   1.198 -1.3940 -0.5265 -1.5071
 1428SOL    HW2 4420   4.981   2.001   1.184 -3.8693 -2.6945 -2.5794
 1429SOL     OW 4421   2.864   0.670   2.066  0.2325 -0.3668 -0.2028
 1429SOL    HW1 4422   2.840   0.711   1.983 -0.3396 -1.5657 -0.6668
 1429SOL    HW2 4423   2.954   0.640   2.054  1.0562  1.6227  0.5240
 1430SOL     OW 4424   4.228   4.160   1.390 -0.3362 -0.0735 -0.0880
 1430SOL    HW1 4425   4.236   4.144   1.296  6.0239  0.7810 -0.1200
 1430SOL    HW2 4426   4.249   4.253   1.401  0.2740 -0.4147  2.2203
 1431SOL     OW 4427   1.904   2.022   2.131 -0.2765  0.3268  0.1676
 1431SOL    HW1 4428   1.972   2.089   2.121 -1.3435  1.2624 -1.1120
 1431SOL    HW2 4429   1.833   2.066   2.177  0.4809 -1.0620  2.8656
 1432SOL     OW 4430   2.595   0.917   1.167  0.1399 -0.7768 -0.5428
 1432SOL    HW1 4431   2.520   0.910   1.226  0.8034  1.7869  0.7509
 1432SOL    HW2 4432   2.651   0.843   1.191 -1.3589 -2.0083 -0.6768
 1433SOL     OW 4433   5.035   4.044   3.285  0.4602  0.0967 -0.1780
 1433SOL    HW1 4434   5.075   3.959   3.304  2.2062  0.4276 -1.9209
 1433SOL    HW2 4435   4.949   4.023   3.249  0.5925 -0.8824  0.0468
 1434SOL     OW 4436   0.078   4.725   1.667  0.2608  0.5902 -0.5488
 1434SOL    HW1 4437   0.071   4.637   1.630  1.1505  0.3032 -0.0631
 1434SOL    HW2 4438   0.041   4.783   1.600 -1.8597 -0.2788 -0.2242
 1435SOL     OW 4439   3.732   2.768   4.870 -0.2555 -0.3626 -0.0103
 1435SOL    HW1 4440   3.765   2.713   4.941 -0.8320 -2.3988 -1.2200
 1435SOL    HW2 4441   3.772   2.853   4.885  1.6929 -1.4208  1.3031
 1436SOL     OW 4442   2.231   4.078   1.776 -0.2618  0.5980 -0.0268
 1436SOL    HW1 4443   2.200   4.004   1.724  1.1499  1.3262 -2.0766
 1436SOL    HW2 4444   2.210   4.055   1.866 -0.5874 -1.9208 -0.6593
 1437SOL     OW 4445   2.920   4.415   0.670 -0.1490  0.1185 -0.4823
 1437SOL    HW1 4446   2.869   4.496   0.677 -2.0361 -0.9396 -1.0350
 1437SOL    HW2 4447   2.936   4.405   0.577 -1.2891 -0.8915 -0.5933
 1438SOL     OW 4448   2.957   1.361   0.819  0.2426 -0.0655  0.2858
 1438SOL    HW1 4449   2.861   1.354   0.823  0.0713  0.8108 -1.1992
 1438SOL    HW2 4450   2.989   1.288   0.871 -1.2392 -0.6366  0.4559
 1439SOL     OW 4451   0.997   1.489   2.114 -0.4512 -0.0675  0.5913
 1439SOL    HW1 4452   1.043   1.570   2.092 -0.4543 -0.0845  0.5213
 1439SOL    HW2 4453   0.930   1.481   2.047 -0.6577  0.0383  0.7841
 1440SOL     OW 4454   3.610   1.794   4.564  0.4383  0.0764  0.2216
 1440SOL    HW1 4455   3.578   1.726   4.624 -1.3169  1.1849  0.6174
 1440SOL    HW2 4456   3.531   1.841   4.537  1.7171  3.6817  2.0478
 1441SOL     OW 4457   1.736   0.031   2.735 -0.2343  0.4036  1.1211
 1441SOL    HW1 4458   1.790   0.025   2.814  0.4637  1.1726  0.7185
 1441SOL    HW2 4459   1.786   0.088   2.677 -0.7772 -0.0977  0.1461
 1442SOL     OW 4460   4.719   4.413   3.760  0.1942  0.5903  0.2341
 1442SOL    HW1 4461   4.668   4.410   3.679 -1.3618  0.2616  1.1840
 1442SOL    HW2 4462   4.809   4.397   3.733 -0.2545  0.8293 -1.4660
 1443SOL     OW 4463   1.840   2.812   0.857 -0.1190  0.2066  1.1254
 1443SOL    HW1 4464   1.817   2.901   0.833  0.4096  0.0539 -0.0262
 1443SOL    HW2 4465   1.936   2.809   0.852 -0.2146 -1.1174 -1.6265
 1444SOL     OW 4466   4.483   1.421   3.022  0.3696 -0.3278  0.3491
 1444SOL    HW1 4467   4.511   1.482   3.091  0.9498  0.7817 -0.8301
 1444SOL    HW2 4468   4.560   1.410   2.967 -0.2464 -0.7339 -0.4548
 1445SOL     OW 4469   2.983   1.326   1.749  0.1804  0.6910 -0.2337
 1445SOL    HW1 4470   3.058   1.386   1.744  0.2491  0.5345 -1.1795
 1445SOL    HW2 4471   2.915   1.369   1.697  0.7284 -0.7504 -2.2316
 1446SOL     OW 4472   2.687   3.193   2.093  0.2217  0.7248 -0.3282
 1446SOL    HW1 4473   2.742   3.186   2.172  1.5371 -0.1118 -1.2892
 1446SOL    HW2 4474   2.700   3.111   2.047 -1.4368  0.7388 -0.8894
 1447SOL     OW 4475   3.828   0.491   4.795 -0.1755 -0.6869  0.0447
 1447SOL    HW1 4476   3.737   0.509   4.774  0.4195  1.6542 -0.9083
 1447SOL    HW2 4477   3.858   0.434   4.724 -0.2178  0.8051 -1.2220
 1448SOL     OW 4478   3.785   4.776   3.747  0.0469  0.6481 -0.1757
 1448SOL    HW1 4479   3.761   4.721   3.821  0.5822  0.2181 -0.3068
 1448SOL    HW2 4480   3.876   4.751   3.727 -0.4687 -0.1601 -1.7474
 1449SOL     OW 4481   4.216   3.816   0.044  0.5298  0.1180 -0.4541
 1449SOL    HW1 4482   4.309   3.818   0.024  0.5070 -0.3859 -0.6044
 1449SOL    HW2 4483   4.198   3.903   0.081  1.5845 -0.5986  1.9263
 1450SOL     OW 4484   4.645   2.664   3.460  0.1048  0.7586 -0.2410
 1450SOL    HW1 4485   4.602   2.749   3.475  0.6181  0.8764  0.6424
 1450SOL    HW2 4486   4.737   2.686   3.444  0.7600  0.2765  2.3596
 1451SOL     OW 4487   0.041   1.843   0.027  0.3142 -0.2819 -0.1408
 1451SOL    HW1 4488  -0.028   1.777   0.039  0.1765 -0.1898 -0.4199
 1451SOL    HW2 4489   0.116   1.793  -0.005  0.8365 -0.6048  1.5254
 1452SOL     OW 4490   0.560   4.825   0.702  0.3640 -0.3578 -0.2261
 1452SOL    HW1 4491   0.606   4.889   0.647 -0.3796  0.1080 -0.3073
 1452SOL    HW2 4492   0.587   4.847   0.791 -1.8481  1.7630  0.0293
 1453SOL     OW 4493   3.135   1.559   4.341  0.4240 -0.6550 -0.1005
 1453SOL    HW1 4494   3.124   1.561   4.246 -1.6321 -2.7080  0.0164
 1453SOL    HW2 4495   3.119   1.468   4.365  1.4886 -0.3031  2.1886
 1454SOL     OW 4496   3.134   1.781   1.331  0.2243 -0.0448 -0.1049
 1454SOL    HW1 4497   3.073   1.849   1.360  1.1676  0.7712  0.0287
 1454SOL    HW2 4498   3.209   1.791   1.390  1.6335  0.7626 -1.9528
 1455SOL     OW 4499   4.542   3.727   4.681  0.6059  0.3573  0.1484
 1455SOL    HW1 4500   4.470   3.686   4.633  1.4172 -2.5378  1.2099
 1455SOL    HW2 4501   4.525   3.706   4.772  0.3646  3.7405  1.0031
 1456SOL     OW 4502   1.489   4.229   4.013 -0.1103 -0.3690 -0.2421
 1456SOL    HW1 4503   1.516   4.270   4.096  0.3678 -0.0205 -0.5679
 1456SOL    HW2 4504   1.403   4.192   4.033 -0.6724  0.9843  0.0273
 1457SOL     OW 4505   4.440   1.724   1.746 -0.2148  0.6135  0.3065
 1457SOL    HW1 4506   4.494   1.736   1.825 -0.7944  0.3688  0.7461
 1457SOL    HW2 4507   4.438   1.630   1.732  0.0620  0.6724 -0.1266
 1458SOL     OW 4508   3.301   2.099   1.648  0.5667  0.5866  0.4670
 1458SOL    HW1 4509   3.314   2.138   1.561 -2.6531 -0.6820 -0.7561
 1458SOL    HW2 4510   3.381   2.051   1.665  0.5344 -1.0122 -2.9490
 1459SOL     OW 4511   1.432   0.282   4.344 -0.5298  0.2273 -1.0233
 1459SOL    HW1 4512   1.494   0.353   4.360  0.2935 -0.8450  0.9654
 1459SOL    HW2 4513   1.346   0.323   4.355 -0.0692  0.9196  0.2998
 1460SOL     OW 4514   3.566   0.499   4.167  0.1358 -0.2318 -0.0326
 1460SOL    HW1 4515   3.615   0.539   4.096 -1.0459  0.9145 -0.2599
 1460SOL    HW2 4516   3.626   0.436   4.206  1.7949  1.1500 -0.2427
 1461SOL     OW 4517   2.558   1.402   2.618 -0.8065  0.4925  0.7913
 1461SOL    HW1 4518   2.542   1.427   2.709 -0.4691  0.5358  0.8401
 1461SOL    HW2 4519   2.621   1.467   2.587 -0.8012  0.3824  0.5754
 1462SOL     OW 4520   4.148   2.662   4.386  0.1593  0.0730 -0.4888
 1462SOL    HW1 4521   4.177   2.618   4.466 -1.2062  1.5644  0.9243
 1462SOL    HW2 4522   4.060   2.629   4.370 -0.0925  0.7527 -0.5724
 1463SOL     OW 4523   1.968   4.907   2.149 -0.0771 -0.1442  0.6500
 1463SOL    HW1 4524   1.894   4.867   2.104  0.6692 -1.9884  0.9697
 1463SOL    HW2 4525   1.996   4.978   2.092 -0.1809 -1.3729 -1.0004
 1464SOL     OW 4526   0.342   1.578   0.704  0.1776 -0.4693 -0.0527
 1464SOL    HW1 4527   0.249   1.561   0.690  0.0978  0.2779 -0.4580
 1464SOL    HW2 4528   0.374   1.499   0.749 -0.7700 -0.4950  0.6129
 1465SOL     OW 4529   0.882   0.169   0.506  0.7862  0.5812  0.4621
 1465SOL    HW1 4530   0.890   0.192   0.414  1.5680  0.6129  0.5269
 1465SOL    HW2 4531   0.971   0.176   0.540  0.5262  0.4537  1.1925
 1466SOL     OW 4532   1.960   1.089   4.699 -0.4075  0.4865 -0.2313
 1466SOL    HW1 4533   2.002   1.170   4.672  0.8347 -0.2384 -0.5247
 1466SOL    HW2 4534   1.939   1.102   4.791 -0.2737  1.1559 -0.2936
 1467SOL     OW 4535   4.124   2.860   0.783  0.6260 -0.7782  0.6749
 1467SOL    HW1 4536   4.094   2.820   0.701  2.9196 -1.1347 -0.0571
 1467SOL    HW2 4537   4.112   2.791   0.849  1.4966 -1.5754  0.0371
 1468SOL     OW 4538   0.536   2.009   1.606  0.3891 -0.1624 -0.3562
 1468SOL    HW1 4539   0.531   2.035   1.698 -0.6144 -3.4841  0.6786
 1468SOL    HW2 4540   0.615   2.052   1.573 -0.1157  2.4709  1.5184
 1469SOL     OW 4541   2.230   3.884   1.502 -0.6131 -0.1645 -0.1185
 1469SOL    HW1 4542   2.187   3.865   1.418 -0.8684 -3.0380  0.5939
 1469SOL    HW2 4543   2.165   3.863   1.568 -0.1776  1.4244  0.8733
 1470SOL     OW 4544   4.809   1.540   3.470 -0.1848  0.3070 -0.9239
 1470SOL    HW1 4545   4.853   1.493   3.399  0.3451  1.3628 -1.3167
 1470SOL    HW2 4546   4.759   1.609   3.426 -2.4366 -0.9615 -0.5132
 1471SOL     OW 4547   1.573   4.914   2.029 -0.0186 -0.4339 -0.4015
 1471SOL    HW1 4548   1.611   4.908   1.942 -1.1403 -1.6617 -0.8374
 1471SOL    HW2 4549   1.647   4.935   2.086  0.8580 -0.3368 -1.5442
 1472SOL     OW 4550   0.564   1.369   4.340 -0.3113  0.3338  0.2935
 1472SOL    HW1 4551   0.474   1.370   4.372 -0.4419  0.6137 -0.0733
 1472SOL    HW2 4552   0.607   1.301   4.392 -0.8541 -0.1238  0.1554
 1473SOL     OW 4553   2.219   0.040   3.020  0.6109 -0.3136  0.1848
 1473SOL    HW1 4554   2.268  -0.020   3.076  0.7009 -0.8910 -0.5042
 1473SOL    HW2 4555   2.257   0.028   2.933  0.6501  0.7620  0.0329
 1474SOL     OW 4556   4.279   0.526   2.745  0.5011  0.0145  0.9889
 1474SOL    HW1 4557   4.287   0.611   2.702 -1.0635 -0.0664  0.4898
 1474SOL    HW2 4558   4.201   0.535   2.800  1.7324 -0.2990  2.8759
 1475SOL     OW 4559   2.288   0.203   2.034 -0.0435 -0.1656  0.0522
 1475SOL    HW1 4560   2.246   0.289   2.032 -1.1897 -0.6854  1.0036
 1475SOL    HW2 4561   2.231   0.147   1.982 -0.6654 -0.9207  1.4902
 1476SOL     OW 4562   0.199   1.021   4.580  0.0108 -0.5315  0.1214
 1476SOL    HW1 4563   0.124   1.076   4.557 -1.8760 -2.4877  1.2832
 1476SOL    HW2 4564   0.163   0.954   4.637  2.6235 -1.7566  0.4653
 1477SOL     OW 4565   1.754   3.064   1.139  0.0274 -0.3264  0.5616
 1477SOL    HW1 4566   1.694   2.999   1.101  0.2031  0.0792 -0.4263
 1477SOL    HW2 4567   1.734   3.145   1.093  0.8554 -0.0284  0.7103
 1478SOL     OW 4568   1.977   1.146   0.543  0.2664  0.0411  0.5437
 1478SOL    HW1 4569   1.942   1.216   0.489 -2.3516 -2.7902 -1.7775
 1478SOL    HW2 4570   1.963   1.175   0.633 -0.6998  2.4298 -0.3131
 1479SOL     OW 4571   2.299   3.905   2.507 -0.8426 -0.0041 -0.2791
 1479SOL    HW1 4572   2.216   3.859   2.499 -1.2195  0.5841  0.0690
 1479SOL    HW2 4573   2.350   3.854   2.571 -0.4338 -1.0444 -1.4140
 1480SOL     OW 4574   1.827   4.566   3.963 -0.2544 -0.2264  0.0758
 1480SOL    HW1 4575   1.908   4.516   3.965  1.3828  2.2349 -0.6436
 1480SOL    HW2 4576   1.760   4.504   3.934  1.5314 -2.1116 -0.1441
 1481SOL     OW 4577   1.392   4.971   0.298  0.5991 -0.0442  0.0339
 1481SOL    HW1 4578   1.461   4.905   0.305  0.7164  0.0830  0.0921
 1481SOL    HW2 4579   1.353   4.955   0.212 -0.2897 -1.0690  0.6033
 1482SOL     OW 4580   2.014   1.764   1.473  0.1086 -0.2189 -0.2967
 1482SOL    HW1 4581   1.924   1.797   1.479 -0.4430 -1.6442 -0.3258
 1482SOL    HW2 4582   2.021   1.729   1.384  0.4014 -0.8591 -0.0340
 1483SOL     OW 4583   0.693   0.434   4.904 -0.0048  0.0542 -0.1568
 1483SOL    HW1 4584   0.778   0.445   4.861  0.1351 -0.2760  0.0334
 1483SOL    HW2 4585   0.697   0.489   4.981 -0.6623  1.5208 -1.1288
 1484SOL     OW 4586   3.321   1.907   4.537  0.6785 -0.1185  0.0284
 1484SOL    HW1 4587   3.249   1.883   4.479 -0.9717  0.8631  1.5898
 1484SOL    HW2 4588   3.350   1.993   4.505 -0.7051  0.7519  1.0515
 1485SOL     OW 4589   2.564   0.823   3.275 -0.7574  0.1283 -0.3724
 1485SOL    HW1 4590   2.526   0.741   3.307 -0.0167 -0.0197  0.1446
 1485SOL    HW2 4591   2.490   0.870   3.237 -1.2856 -0.5572 -0.2110
 1486SOL     OW 4592   4.338   3.303   4.017  0.1839  0.2525  0.3630
 1486SOL    HW1 4593   4.249   3.282   3.988  0.3096  1.7536 -1.3487
 1486SOL    HW2 4594   4.331   3.311   4.112 -1.6591  0.9078  0.2179
 1487SOL     OW 4595   4.821   0.418   1.192  0.3319 -0.1669  0.1709
 1487SOL    HW1 4596   4.915   0.419   1.174  0.0626 -2.5688 -1.9756
 1487SOL    HW2 4597   4.782   0.455   1.113 -0.5871 -0.7802  0.3271
 1488SOL     OW 4598   3.130   3.914   2.417 -0.4220 -0.0754 -0.0748
 1488SOL    HW1 4599   3.080   3.834   2.434  2.7875 -1.8183  2.4473
 1488SOL    HW2 4600   3.154   3.908   2.324 -1.9449 -0.9241 -0.4434
 1489SOL     OW 4601   1.061   3.049   0.963 -0.0154 -0.2023 -0.0594
 1489SOL    HW1 4602   1.047   3.004   1.047 -1.2841 -1.7395 -1.0521
 1489SOL    HW2 4603   1.154   3.071   0.963 -0.0763  0.2914  1.9494
 1490SOL     OW 4604   4.840   1.299   4.688  0.0021  0.4664  0.2394
 1490SOL    HW1 4605   4.849   1.304   4.783 -1.6439 -0.4228  0.4838
 1490SOL    HW2 4606   4.748   1.320   4.672 -0.2453 -1.3432 -0.9632
 1491SOL     OW 4607   4.454   3.649   0.389  0.0187  0.1150  0.5091
 1491SOL    HW1 4608   4.394   3.652   0.314  1.9345 -0.5385 -1.1497
 1491SOL    HW2 4609   4.487   3.739   0.395  0.9654 -0.1397 -0.4488
 1492SOL     OW 4610   2.055   4.350   2.528  0.1111 -0.5483 -0.2675
 1492SOL    HW1 4611   2.044   4.262   2.561 -1.5508 -0.4783 -0.5804
 1492SOL    HW2 4612   2.092   4.399   2.602 -3.3949 -0.4124  1.5923
 1493SOL     OW 4613   1.149   4.140   4.806  0.3761 -0.5474  0.0920
 1493SOL    HW1 4614   1.133   4.203   4.876  0.7610 -0.1666 -0.1579
 1493SOL    HW2 4615   1.063   4.106   4.783  0.1892 -0.2607  0.3645
 1494SOL     OW 4616   1.264   4.013   1.884 -0.0290  0.0186 -0.3815
 1494SOL    HW1 4617   1.220   3.931   1.906  0.4592 -0.0634  0.3255
 1494SOL    HW2 4618   1.215   4.079   1.933  0.6457 -0.0795  0.4528
 1495SOL     OW 4619   2.422   0.524   4.000 -0.3326 -0.4642  0.2075
 1495SOL    HW1 4620   2.485   0.478   3.944  1.9303  1.8331  0.7011
 1495SOL    HW2 4621   2.388   0.456   4.058  1.8434 -1.8183  0.0184
 1496SOL     OW 4622   1.065   5.025   0.219  0.3140 -1.0508  0.0916
 1496SOL    HW1 4623   1.140   5.026   0.160  1.6331  1.2688  1.6432
 1496SOL    HW2 4624   1.103   5.036   0.306 -1.8089 -0.0073  0.9553
 1497SOL     OW 4625   3.929   2.419   4.942  0.4494 -0.5795 -0.0410
 1497SOL    HW1 4626   3.911   2.365   5.019  2.5821  1.6568  2.2045
 1497SOL    HW2 4627   3.882   2.501   4.958  2.0991  0.4793 -0.3064
 1498SOL     OW 4628   3.879   0.566   0.298 -0.0440  0.1048  0.1876
 1498SOL    HW1 4629   3.812   0.550   0.232 -0.7377 -1.4858  1.2217
 1498SOL    HW2 4630   3.960   0.579   0.248 -0.7956  0.2946 -1.0114
 1499SOL     OW 4631   1.422   4.734   4.122 -0.0947 -0.1775  0.0557
 1499SOL    HW1 4632   1.363   4.705   4.191  0.3550  0.9226  0.9539
 1499SOL    HW2 4633   1.423   4.830   4.131  1.4578 -0.1449 -0.2221
 1500SOL     OW 4634   2.081   3.394   3.038 -0.5998 -0.6487  0.0220
 1500SOL    HW1 4635   2.043   3.310   3.064 -1.2780 -0.3746 -0.0608
 1500SOL    HW2 4636   2.016   3.459   3.065  0.0861 -0.1128  0.4229
 1501SOL     OW 4637   4.112   4.863   1.965 -0.2473 -0.4409 -0.2229
 1501SOL    HW1 4638   4.141   4.951   1.941 -0.0419  0.1871  2.0318
 1501SOL    HW2 4639   4.043   4.877   2.031 -0.4108 -1.9643 -0.0158
 1502SOL     OW 4640   2.446   2.872   2.769  0.1502  0.8582  0.1553
 1502SOL    HW1 4641   2.446   2.917   2.854 -1.8449  0.4511  0.4165
 1502SOL    HW2 4642   2.479   2.785   2.788  0.9696  1.1819  0.2515
 1503SOL     OW 4643   3.580   0.600   2.212  0.2686 -0.2054 -0.0327
 1503SOL    HW1 4644   3.530   0.605   2.131  1.4034  3.0435 -0.6734
 1503SOL    HW2 4645   3.658   0.550   2.189  1.0574  1.5145 -1.3227
 1504SOL     OW 4646   2.756   2.680   2.190 -0.2560 -0.3776 -0.0053
 1504SOL    HW1 4647   2.755   2.622   2.266 -0.7764  0.6431  0.7774
 1504SOL    HW2 4648   2.723   2.626   2.118 -0.7019 -1.0596  0.7020
 1505SOL     OW 4649   4.666   2.342   4.941  0.3638 -0.0898 -0.4406
 1505SOL    HW1 4650   4.664   2.278   5.013  1.0569  0.3121 -0.0627
 1505SOL    HW2 4651   4.590   2.398   4.958  0.4643 -0.0582 -0.0789
 1506SOL     OW 4652   1.756   0.135   4.644  0.2212 -0.3258  0.0147
 1506SOL    HW1 4653   1.792   0.203   4.588  1.0658 -1.2746 -0.6361
 1506SOL    HW2 4654   1.778   0.163   4.733  2.4267 -0.7425 -0.3409
 1507SOL     OW 4655   0.454   4.546   3.121 -0.2398 -0.2820  0.2239
 1507SOL    HW1 4656   0.369   4.502   3.115 -0.1247 -0.5490  0.5614
 1507SOL    HW2 4657   0.450   4.615   3.054 -1.1945  0.5026  1.0630
 1508SOL     OW 4658   2.317   2.975   3.644  0.4824 -0.3557 -0.1530
 1508SOL    HW1 4659   2.347   3.003   3.730  0.6237 -0.4524 -0.1703
 1508SOL    HW2 4660   2.393   2.988   3.587  0.7359 -1.3083 -0.0498
 1509SOL     OW 4661   2.081   4.204   3.555 -0.0388  0.5669 -0.3610
 1509SOL    HW1 4662   2.111   4.283   3.601 -0.5011  1.2889 -1.2484
 1509SOL    HW2 4663   2.036   4.153   3.622  3.7901 -1.0349  1.3124
 1510SOL     OW 4664   1.809   4.955   1.618 -0.1272 -0.0011 -0.6595
 1510SOL    HW1 4665   1.784   4.959   1.710 -1.1924 -0.7174 -0.8971
 1510SOL    HW2 4666   1.844   4.867   1.606 -0.7082 -0.1761 -1.1056
 1511SOL     OW 4667   4.938   1.977   0.893  0.0443  0.2197 -0.0069
 1511SOL    HW1 4668   4.932   2.005   0.985 -1.0837  1.4596 -0.4359
 1511SOL    HW2 4669   4.907   2.052   0.843 -1.6285 -1.2693 -1.2973
 1512SOL     OW 4670   2.623   0.829   2.273 -0.2427 -0.0297  0.3140
 1512SOL    HW1 4671   2.621   0.872   2.188  0.4320 -3.0568 -1.3436
 1512SOL    HW2 4672   2.687   0.880   2.324  1.1672  0.4342 -1.8015
 1513SOL     OW 4673   1.070   0.522   2.568  0.0563 -0.4680  0.3564
 1513SOL    HW1 4674   1.056   0.596   2.509  0.5992 -1.5286 -1.1601
 1513SOL    HW2 4675   1.089   0.449   2.510 -0.6823 -1.8616  1.8107
 1514SOL     OW 4676   4.337   3.284   0.608  0.2859 -0.7271 -0.0569
 1514SOL    HW1 4677   4.338   3.189   0.597  0.0843 -1.1023  2.4567
 1514SOL    HW2 4678   4.419   3.303   0.654 -0.1511  0.1544  0.3787
 1515SOL     OW 4679   2.848   2.264   4.315 -1.2301 -0.2860  0.6681
 1515SOL    HW1 4680   2.911   2.196   4.338  0.3632  1.1690  0.7691
 1515SOL    HW2 4681   2.884   2.344   4.353 -1.1754  1.2913 -2.3498
 1516SOL     OW 4682   1.665   1.952   2.308  1.0776 -0.2528  0.0397
 1516SOL    HW1 4683   1.593   1.898   2.340 -1.3861  2.7199 -0.0289
 1516SOL    HW2 4684   1.633   1.989   2.226  2.6143  1.2940  0.0755
 1517SOL     OW 4685   0.584   0.315   3.647 -0.0006  0.5447 -0.1608
 1517SOL    HW1 4686   0.552   0.373   3.717  0.5710  0.8351 -0.1366
 1517SOL    HW2 4687   0.611   0.235   3.693 -0.5935  0.3334 -0.1711
 1518SOL     OW 4688   1.531   0.882   2.986 -0.0693  0.4534 -0.2780
 1518SOL    HW1 4689   1.484   0.965   2.979 -1.1010  0.0008  0.7997
 1518SOL    HW2 4690   1.479   0.821   2.933 -1.3944 -0.2969  1.7375
 1519SOL     OW 4691   4.558   2.252   3.393  0.1100  0.5638 -0.8736
 1519SOL    HW1 4692   4.551   2.290   3.306  0.5213  2.3300 -0.1988
 1519SOL    HW2 4693   4.552   2.328   3.452  0.9829 -0.4400  0.5753
 1520SOL     OW 4694   3.583   3.725   2.360  0.2767  0.6249 -0.1851
 1520SOL    HW1 4695   3.607   3.817   2.366  0.0351  0.6583  0.3237
 1520SOL    HW2 4696   3.511   3.722   2.297  0.6690  0.7039 -0.6465
 1521SOL     OW 4697   2.870   3.857   4.207  0.4041 -0.2211 -0.3005
 1521SOL    HW1 4698   2.852   3.763   4.200 -1.9800  0.2139 -0.7446
 1521SOL    HW2 4699   2.845   3.880   4.296  2.7527 -0.2902  0.4421
 1522SOL     OW 4700   1.964   4.779   4.036  0.3440 -0.2621  0.3176
 1522SOL    HW1 4701   1.999   4.838   3.970  2.8923 -1.4916  0.4738
 1522SOL    HW2 4702   1.902   4.724   3.988  0.5429  0.2684 -0.5696
 1523SOL     OW 4703   1.152   1.977   5.046  0.3129  0.1301  0.3594
 1523SOL    HW1 4704   1.074   2.018   5.084  0.7384  1.3108 -0.0047
 1523SOL    HW2 4705   1.138   1.981   4.952  1.2195  1.2580  0.2404
 1524SOL     OW 4706   3.809   0.477   2.169  0.0372  0.3078 -0.0415
 1524SOL    HW1 4707   3.843   0.388   2.152  0.4801 -0.0559  2.4300
 1524SOL    HW2 4708   3.861   0.533   2.110  2.0274 -0.7333  0.6080
 1525SOL     OW 4709   0.169   2.034   0.769  1.1094  0.3694  0.0645
 1525SOL    HW1 4710   0.117   2.017   0.848  0.5984  0.5991 -0.2163
 1525SOL    HW2 4711   0.135   2.117   0.736 -0.3349 -0.8496 -1.6882
 1526SOL     OW 4712   3.802   1.279   1.787 -0.0344  0.7782 -0.2244
 1526SOL    HW1 4713   3.731   1.215   1.783  1.3580 -1.0887  1.9193
 1526SOL    HW2 4714   3.851   1.267   1.706 -0.5498  0.0759 -0.4372
 1527SOL     OW 4715   0.233   2.948   1.003  0.2770 -0.7364  0.3480
 1527SOL    HW1 4716   0.262   3.010   0.936  1.2249 -1.2594  0.2474
 1527SOL    HW2 4717   0.306   2.886   1.011 -0.1524 -1.1390  1.3015
 1528SOL     OW 4718   0.436   1.694   1.142 -0.8140  0.1018 -0.0717
 1528SOL    HW1 4719   0.454   1.743   1.062  1.8867  0.7600  0.8466
 1528SOL    HW2 4720   0.375   1.749   1.191 -1.5783  0.2368 -1.1346
 1529SOL     OW 4721   2.098   3.201   2.374  0.2100  0.0619 -0.2733
 1529SOL    HW1 4722   2.023   3.258   2.357  0.0572  0.3523  1.2407
 1529SOL    HW2 4723   2.082   3.166   2.461  0.2129 -2.4629 -1.2057
 1530SOL     OW 4724   0.786   3.776   4.132  0.3224  0.0482 -0.0070
 1530SOL    HW1 4725   0.765   3.822   4.051 -0.3823  0.1951  0.2594
 1530SOL    HW2 4726   0.727   3.701   4.133 -3.5009  2.7385  2.8605
 1531SOL     OW 4727   1.253   0.844   4.204  0.6874 -0.7289  0.3198
 1531SOL    HW1 4728   1.248   0.932   4.167  2.2826 -0.4582  0.6732
 1531SOL    HW2 4729   1.210   0.851   4.289 -1.2722 -0.8876 -0.6184
 1532SOL     OW 4730   1.971   4.196   4.974 -0.1499 -0.1243  0.7001
 1532SOL    HW1 4731   1.886   4.222   5.008 -0.8006  0.5784 -1.3541
 1532SOL    HW2 4732   1.961   4.198   4.879  2.6664  1.7205  0.3346
 1533SOL     OW 4733   1.497   2.195   3.398 -0.6547  0.1889  0.4105
 1533SOL    HW1 4734   1.479   2.108   3.362 -1.1443  1.3171 -2.3151
 1533SOL    HW2 4735   1.592   2.197   3.411 -0.1123  0.2462 -2.7018
 1534SOL     OW 4736   1.406   4.811   3.329  0.0272 -0.1532  0.6416
 1534SOL    HW1 4737   1.402   4.902   3.300 -0.5314  0.0322  1.2612
 1534SOL    HW2 4738   1.347   4.808   3.405  1.3638 -0.6341  1.6893
 1535SOL     OW 4739   1.140   4.254   1.980 -0.3117  0.3005 -0.6031
 1535SOL    HW1 4740   1.063   4.204   2.006  1.1098 -1.1561  1.0989
 1535SOL    HW2 4741   1.105   4.338   1.949 -2.4728  0.7985  2.6735
 1536SOL     OW 4742   5.009   1.988   4.708  0.9671 -0.0607 -0.0677
 1536SOL    HW1 4743   4.962   2.036   4.776  0.0408 -0.0709 -0.6801
 1536SOL    HW2 4744   5.028   2.054   4.641  0.3545 -0.3780 -0.5682
 1537SOL     OW 4745   0.465   4.624   1.973  0.4225 -0.3763  0.7094
 1537SOL    HW1 4746   0.387   4.581   1.938  0.3596 -0.9053  1.4743
 1537SOL    HW2 4747   0.453   4.717   1.952 -0.4541 -0.4423  0.8735
 1538SOL     OW 4748   0.272   1.345   4.344 -0.3405  0.9000 -0.2638
 1538SOL    HW1 4749   0.276   1.252   4.323  1.0529  0.4582  1.6401
 1538SOL    HW2 4750   0.190   1.356   4.391 -1.3926  1.0401 -2.0647
 1539SOL     OW 4751   4.937   0.786   0.621 -0.1359  0.0691 -0.1548
 1539SOL    HW1 4752   5.009   0.724   0.609 -0.1983  0.0624 -0.5123
 1539SOL    HW2 4753   4.915   0.814   0.532 -2.3925 -1.9738 -0.3543
 1540SOL     OW 4754   4.862   4.900   0.902  0.8949 -0.1970  0.6565
 1540SOL    HW1 4755   4.801   4.836   0.867  0.0325  0.3918  1.0304
 1540SOL    HW2 4756   4.948   4.870   0.875  0.4246 -0.9838  0.0171
 1541SOL     OW 4757   0.787   2.077   4.542 -0.7857 -0.2253  0.1549
 1541SOL    HW1 4758   0.799   2.107   4.632  0.5395  1.5237 -0.5562
 1541SOL    HW2 4759   0.699   2.038   4.541 -1.3042  0.8094  1.9089
 1542SOL     OW 4760   4.617   4.448   0.018  0.1508  0.2340  0.3516
 1542SOL    HW1 4761   4.667   4.381   0.065 -0.7600  0.6896  2.0469
 1542SOL    HW2 4762   4.583   4.505   0.087  0.1217  1.9112 -0.9928
 1543SOL     OW 4763   3.286   3.820   2.206 -0.6961  0.3189 -0.6347
 1543SOL    HW1 4764   3.364   3.766   2.190 -0.1664  0.4339  1.2894
 1543SOL    HW2 4765   3.306   3.903   2.162  0.0343  0.1611 -0.6227
 1544SOL     OW 4766   3.126   2.467   0.315 -0.3532  0.1515  0.0596
 1544SOL    HW1 4767   3.211   2.480   0.358 -0.2340 -1.7592  0.4984
 1544SOL    HW2 4768   3.141   2.493   0.224  1.1310 -1.3480 -0.1938
 1545SOL     OW 4769   2.533   0.341   3.654 -0.2513 -0.6179  0.0240
 1545SOL    HW1 4770   2.453   0.368   3.698 -0.1339  2.0950 -1.2114
 1545SOL    HW2 4771   2.515   0.253   3.622 -1.4401 -1.4236  2.7032
 1546SOL     OW 4772   0.694   4.463   0.925 -0.1903  0.4907 -0.2597
 1546SOL    HW1 4773   0.746   4.543   0.934  0.0848  0.4748 -1.5511
 1546SOL    HW2 4774   0.639   4.478   0.849 -0.8654 -0.1639  0.0886
 1547SOL     OW 4775   3.686   3.706   0.035 -0.4394 -0.4589 -0.0947
 1547SOL    HW1 4776   3.781   3.713   0.020 -0.4113 -2.4984 -1.2109
 1547SOL    HW2 4777   3.653   3.794   0.021  0.7274 -0.4702 -4.4063
 1548SOL     OW 4778   2.765   4.549   3.698  0.6413 -0.0108 -0.3259
 1548SOL    HW1 4779   2.756   4.643   3.717 -0.6195 -0.8380  4.4823
 1548SOL    HW2 4780   2.675   4.518   3.691  1.0058 -1.1990  0.1610
 1549SOL     OW 4781   0.532   2.036   1.888 -0.2681  0.2205  0.3708
 1549SOL    HW1 4782   0.558   1.961   1.942 -2.6175  0.2633  1.6721
 1549SOL    HW2 4783   0.472   2.086   1.943 -2.0721  0.7738 -1.9521
 1550SOL     OW 4784   3.647   2.590   3.703  0.2354  0.4806 -0.1407
 1550SOL    HW1 4785   3.721   2.533   3.724 -0.3905  0.0254  0.8824
 1550SOL    HW2 4786   3.570   2.542   3.734 -0.2946  1.9501  0.9422
 1551SOL     OW 4787   0.298   4.956   4.260  0.1216  0.9471  0.2270
 1551SOL    HW1 4788   0.340   5.012   4.194 -0.1628  0.1753 -0.6281
 1551SOL    HW2 4789   0.221   4.920   4.216  1.3343 -1.6555  0.0512
 1552SOL     OW 4790   1.456   0.846   0.937  0.3567  0.8840 -0.2532
 1552SOL    HW1 4791   1.533   0.887   0.977  0.1533  0.7382  0.3036
 1552SOL    HW2 4792   1.384   0.905   0.959  0.0814  0.3070  0.4502
 1553SOL     OW 4793   2.179   1.253   3.054  0.4064 -0.5807  0.1063
 1553SOL    HW1 4794   2.096   1.260   3.006  1.2607 -3.2483 -2.0214
 1553SOL    HW2 4795   2.168   1.175   3.108  0.4697  0.8509  2.3203
 1554SOL     OW 4796   4.132   0.541   3.626 -0.3406 -0.0295 -0.7328
 1554SOL    HW1 4797   4.189   0.602   3.579 -1.9509 -0.1031 -2.9591
 1554SOL    HW2 4798   4.153   0.456   3.587  0.3634 -0.5986  0.8254
 1555SOL     OW 4799   3.283   2.921   0.216 -0.8449 -0.4105 -0.4720
 1555SOL    HW1 4800   3.208   2.863   0.236 -2.3501  0.6748 -2.6097
 1555SOL    HW2 4801   3.261   2.960   0.132  1.2776  1.4522 -0.2401
 1556SOL     OW 4802   0.460   0.046   4.078 -0.1399 -0.6846 -0.1719
 1556SOL    HW1 4803   0.448   0.055   3.984  3.5529 -0.0805 -0.7383
 1556SOL    HW2 4804   0.474   0.135   4.109 -0.2045 -0.9921  0.7739
 1557SOL     OW 4805   1.485   1.934   4.438  0.8740  0.1852  0.3306
 1557SOL    HW1 4806   1.510   1.864   4.378  0.5856 -0.2758  0.7452
 1557SOL    HW2 4807   1.403   1.905   4.477 -0.0984  1.4674 -0.6538
 1558SOL     OW 4808   1.026   2.511   4.121 -0.3540  0.2195  0.0630
 1558SOL    HW1 4809   1.076   2.498   4.201 -1.2346  1.2500  0.8005
 1558SOL    HW2 4810   0.938   2.478   4.141 -0.1644 -1.0268 -1.0219
 1559SOL     OW 4811   3.526   4.491   2.947  0.3127  0.1672 -0.0652
 1559SOL    HW1 4812   3.478   4.505   2.866 -0.4692  2.1604  0.6578
 1559SOL    HW2 4813   3.477   4.541   3.013  0.5495 -1.9031  1.7959
 1560SOL     OW 4814   4.514   4.085   1.726 -0.6836  0.0374 -0.1716
 1560SOL    HW1 4815   4.427   4.075   1.687 -0.7435  0.4166 -0.1402
 1560SOL    HW2 4816   4.533   4.179   1.718  0.0382 -0.1546 -0.8657
 1561SOL     OW 4817   2.690   2.560   1.888  0.2146 -0.2738  0.1270
 1561SOL    HW1 4818   2.709   2.540   1.796  0.5429 -1.2560  0.3917
 1561SOL    HW2 4819   2.622   2.627   1.884 -2.2861 -2.6520 -0.9171
 1562SOL     OW 4820   0.513   4.158   2.057  0.0549  0.0610  0.4143
 1562SOL    HW1 4821   0.571   4.109   2.116  0.7125  0.5459  0.1763
 1562SOL    HW2 4822   0.554   4.244   2.048  0.5080 -0.3227 -1.5505
 1563SOL     OW 4823   0.645   2.677   3.380  0.2306 -0.2332  0.3463
 1563SOL    HW1 4824   0.705   2.749   3.402 -1.7056  1.5914 -0.0972
 1563SOL    HW2 4825   0.655   2.616   3.453  1.5366  0.7275  1.0333
 1564SOL     OW 4826   2.159   4.124   0.442  0.4478  0.4850 -0.3819
 1564SOL    HW1 4827   2.107   4.141   0.364 -2.2387 -3.1360  0.3371
 1564SOL    HW2 4828   2.142   4.198   0.500 -1.8538  0.6951 -1.2455
 1565SOL     OW 4829   0.059   0.624   3.225  0.4466 -0.2415 -0.1101
 1565SOL    HW1 4830   0.091   0.648   3.138 -1.3094 -2.5546 -1.5207
 1565SOL    HW2 4831  -0.036   0.636   3.221  0.3126 -0.5167  1.4346
 1566SOL     OW 4832   4.148   0.317   0.938  0.5248 -0.2596 -0.5126
 1566SOL    HW1 4833   4.233   0.289   0.973  1.2991  0.9922 -1.3320
 1566SOL    HW2 4834   4.121   0.245   0.880  2.3471  0.4853 -2.3792
 1567SOL     OW 4835   1.896   1.130   3.315 -0.4264  0.1683  0.4443
 1567SOL    HW1 4836   1.829   1.063   3.326 -0.7151  0.5015  0.7653
 1567SOL    HW2 4837   1.925   1.150   3.404 -0.0489  0.1771  0.3229
 1568SOL     OW 4838   3.504   0.256   0.724  0.3026 -0.0227 -0.1927
 1568SOL    HW1 4839   3.575   0.201   0.690  0.2337  0.4190 -1.0790
 1568SOL    HW2 4840   3.503   0.238   0.818  0.6804 -1.0773 -0.3756
 1569SOL     OW 4841   2.657   4.046   1.283 -0.8917 -0.5007  0.3362
 1569SOL    HW1 4842   2.668   4.074   1.192  1.5257 -2.9242 -0.2469
 1569SOL    HW2 4843   2.745   4.052   1.320 -1.7018 -0.2773  2.3106
 1570SOL     OW 4844   1.990   2.550   4.138 -0.0678 -0.2278 -0.4665
 1570SOL    HW1 4845   1.926   2.482   4.117 -0.3467 -0.6305  1.4602
 1570SOL    HW2 4846   2.008   2.593   4.054 -2.0536 -0.7933 -1.2514
 1571SOL     OW 4847   4.167   0.043   4.364 -0.4369  0.3048  0.4008
 1571SOL    HW1 4848   4.129   0.035   4.452  1.2320  2.6209  1.4252
 1571SOL    HW2 4849   4.233  -0.026   4.360  0.0687  0.7158  1.3369
 1572SOL     OW 4850   4.074   2.833   2.447  0.1524 -0.1497  0.2087
 1572SOL    HW1 4851   4.023   2.830   2.528  0.2607 -2.2914  0.2652
 1572SOL    HW2 4852   4.111   2.921   2.445 -2.5802  1.1185  0.7396
 1573SOL     OW 4853   3.955   0.032   4.596 -0.1109 -0.6552  0.0770
 1573SOL    HW1 4854   4.003   0.056   4.675 -0.1209 -0.7144  0.1014
 1573SOL    HW2 4855   3.871   0.077   4.604  0.8107  1.3794 -1.0993
 1574SOL     OW 4856   1.117   0.868   2.960 -0.1302  0.1704  0.2431
 1574SOL    HW1 4857   1.135   0.814   2.882 -3.5375  0.6165 -1.0264
 1574SOL    HW2 4858   1.183   0.938   2.956 -0.4746  0.4808 -2.5871
 1575SOL     OW 4859   4.588   3.323   0.795  0.1508  0.7455  0.1219
 1575SOL    HW1 4860   4.681   3.309   0.813  0.2235  0.5320 -0.3989
 1575SOL    HW2 4861   4.556   3.374   0.870  0.0996 -1.4052  1.6527
 1576SOL     OW 4862   3.698   2.827   1.505  0.3522 -0.0975  0.3073
 1576SOL    HW1 4863   3.785   2.866   1.509  1.0345 -1.3750 -1.0553
 1576SOL    HW2 4864   3.703   2.751   1.563  0.4977 -0.7511 -0.5328
 1577SOL     OW 4865   0.107   3.023   4.087  0.3571 -1.1451 -0.3300
 1577SOL    HW1 4866   0.154   3.098   4.123 -2.4649  0.5115  0.2223
 1577SOL    HW2 4867   0.089   2.968   4.162 -1.9149  0.2488  0.2650
 1578SOL     OW 4868   4.993   3.503   4.499  0.1332  0.2756  0.2449
 1578SOL    HW1 4869   5.054   3.526   4.570  1.2672 -1.1246 -0.2485
 1578SOL    HW2 4870   4.919   3.563   4.512  1.7971  2.4227  0.5453
 1579SOL     OW 4871   1.887   2.606   2.463  0.2443  0.2034  0.8741
 1579SOL    HW1 4872   1.952   2.652   2.516  0.8005  2.2240 -1.3821
 1579SOL    HW2 4873   1.918   2.616   2.373 -1.4357 -1.7816 -0.0147
 1580SOL     OW 4874   4.646   4.030   2.009 -0.0229  0.5630 -0.4100
 1580SOL    HW1 4875   4.640   4.105   2.067 -0.4313  1.6940 -1.8471
 1580SOL    HW2 4876   4.654   4.068   1.921  0.3284 -1.0707 -1.1353
 1581SOL     OW 4877   2.688   1.709   0.714  0.2135 -0.0580  0.1121
 1581SOL    HW1 4878   2.767   1.703   0.767  1.2285  1.4518 -1.1233
 1581SOL    HW2 4879   2.691   1.797   0.676 -1.7003 -0.2239 -0.5480
 1582SOL     OW 4880   2.663   4.306   3.257  0.2251  0.1060 -0.4092
 1582SOL    HW1 4881   2.572   4.280   3.247  0.0710  0.8491 -1.0519
 1582SOL    HW2 4882   2.706   4.230   3.296 -0.3698 -0.8151 -1.4935
 1583SOL     OW 4883   4.612   4.239   0.971 -0.6680  0.4115  0.1977
 1583SOL    HW1 4884   4.554   4.163   0.984  0.5483 -0.2811  1.9278
 1583SOL    HW2 4885   4.583   4.276   0.888 -1.7540 -1.5569 -0.3836
 1584SOL     OW 4886   4.134   0.546   0.227 -0.7347  0.8421  0.3290
 1584SOL    HW1 4887   4.211   0.545   0.284 -0.4535  1.6346 -0.0219
 1584SOL    HW2 4888   4.161   0.498   0.149 -1.9919 -2.7478  1.8858
 1585SOL     OW 4889   2.049   3.620   0.388 -0.3046 -0.0916 -0.0042
 1585SOL    HW1 4890   2.131   3.580   0.360 -0.4965  0.0722 -0.8388
 1585SOL    HW2 4891   2.075   3.694   0.443  0.1150  0.1190 -0.4811
 1586SOL     OW 4892   3.310   2.183   2.962 -0.0115 -0.3088  0.1779
 1586SOL    HW1 4893   3.295   2.138   3.046  3.6617 -0.3752  0.9540
 1586SOL    HW2 4894   3.299   2.276   2.982 -0.7415 -0.4186  0.3080
 1587SOL     OW 4895   4.734   2.549   2.584 -0.3202 -0.4116  0.1605
 1587SOL    HW1 4896   4.661   2.595   2.544 -0.7565 -3.0292 -2.4349
 1587SOL    HW2 4897   4.810   2.576   2.532 -0.0233 -0.2936  0.6474
 1588SOL     OW 4898   0.701   1.156   4.463 -0.2052  0.0888  0.1157
 1588SOL    HW1 4899   0.790   1.126   4.445  0.5146  1.4732  1.2479
 1588SOL    HW2 4900   0.695   1.158   4.558 -0.9368  1.4534  0.0564
 1589SOL     OW 4901   2.621   3.083   0.632  0.2147  0.0174  0.1748
 1589SOL    HW1 4902   2.649   3.135   0.557  2.1492 -0.3434  0.5992
 1589SOL    HW2 4903   2.530   3.060   0.613 -0.2474  2.3273 -0.6881
 1590SOL     OW 4904   0.959   4.471   2.755  0.5214  0.5212 -0.5836
 1590SOL    HW1 4905   0.952   4.492   2.662  0.4047  1.3443 -0.4007
 1590SOL    HW2 4906   1.013   4.541   2.791  3.2103 -1.4149 -0.5570
 1591SOL     OW 4907   4.481   0.611   2.464 -0.3685 -0.8313  0.0729
 1591SOL    HW1 4908   4.519   0.531   2.500 -2.1624 -1.6165  0.3318
 1591SOL    HW2 4909   4.443   0.656   2.539 -0.0271 -0.0957 -0.1818
 1592SOL     OW 4910   0.636   2.568   0.205 -0.1620 -0.4702  0.1423
 1592SOL    HW1 4911   0.721   2.556   0.247 -0.7177  0.9988  1.8335
 1592SOL    HW2 4912   0.589   2.628   0.263 -3.1534 -2.8343  0.4517
 1593SOL     OW 4913   0.101   4.198   1.144  0.3840 -0.2052  0.3004
 1593SOL    HW1 4914   0.139   4.116   1.111  0.1775 -0.3465  0.4132
 1593SOL    HW2 4915   0.047   4.171   1.218  0.6630  0.0893  0.6074
 1594SOL     OW 4916   3.083   3.780   3.411 -0.0764 -0.1615  0.4738
 1594SOL    HW1 4917   2.995   3.771   3.447  0.5718 -0.2520  2.1091
 1594SOL    HW2 4918   3.078   3.857   3.354 -0.7185  1.1110  2.1771
 1595SOL     OW 4919   2.372   4.700   0.154  0.5353  0.7031 -0.5370
 1595SOL    HW1 4920   2.277   4.689   0.160  0.7793 -0.9764  1.9395
 1595SOL    HW2 4921   2.384   4.791   0.127 -1.7911  1.3878  0.4882
 1596SOL     OW 4922   0.059   4.158   3.001  0.1320 -0.0283 -0.6238
 1596SOL    HW1 4923  -0.000   4.203   2.941 -1.6063 -0.5043  0.6247
 1596SOL    HW2 4924   0.034   4.066   2.995 -0.5248 -0.0183  1.2147
 1597SOL     OW 4925   0.933   3.683   2.643  0.0056 -0.0628 -0.0408
 1597SOL    HW1 4926   1.004   3.717   2.588 -0.1992 -2.0354 -1.6487
 1597SOL    HW2 4927   0.861   3.744   2.630  0.4423  0.2949 -0.8289
 1598SOL     OW 4928   3.092   1.555   1.183 -0.6415 -0.0598 -0.5564
 1598SOL    HW1 4929   3.174   1.506   1.175 -0.3920  0.1512  0.5204
 1598SOL    HW2 4930   3.119   1.641   1.215 -1.3389 -0.2992  0.7663
 1599SOL     OW 4931   1.693   2.535   4.390 -0.0925  0.4181  0.6753
 1599SOL    HW1 4932   1.665   2.585   4.314  1.0506  1.1450  0.7232
 1599SOL    HW2 4933   1.708   2.600   4.458 -0.9510 -0.2088  1.4984
 1600SOL     OW 4934   3.489   4.515   1.876 -0.1109 -0.0792  0.5298
 1600SOL    HW1 4935   3.427   4.451   1.843  1.2243 -0.7861 -0.7205
 1600SOL    HW2 4936   3.533   4.549   1.798  1.3623  0.0747  1.3810
 1601SOL     OW 4937   2.327   4.922   3.874 -0.0624 -0.1944 -0.3456
 1601SOL    HW1 4938   2.330   4.826   3.879 -0.3912 -0.1831  0.1143
 1601SOL    HW2 4939   2.405   4.951   3.922  0.4975 -0.2432 -1.1973
 1602SOL     OW 4940   0.149   1.619   3.816  0.2174  0.4505 -0.7267
 1602SOL    HW1 4941   0.195   1.568   3.749  1.1982  1.0477 -0.5128
 1602SOL    HW2 4942   0.181   1.708   3.805 -0.6695  0.8253 -0.3753
 1603SOL     OW 4943   4.584   4.690   2.980 -0.5708  0.2671  0.2941
 1603SOL    HW1 4944   4.499   4.685   2.937 -0.2217  1.7376 -0.6466
 1603SOL    HW2 4945   4.610   4.782   2.970  0.6976  0.0568  1.4009
 1604SOL     OW 4946   1.921   1.832   3.859  0.1616 -0.6450  0.0746
 1604SOL    HW1 4947   1.993   1.895   3.852  0.1859 -0.6568  0.2082
 1604SOL    HW2 4948   1.884   1.849   3.946 -0.8029  0.2347 -0.4760
 1605SOL     OW 4949   3.836   1.535   4.114  0.2006 -0.3386 -0.2347
 1605SOL    HW1 4950   3.925   1.502   4.100  0.5743 -0.2401  1.7310
 1605SOL    HW2 4951   3.781   1.479   4.058  1.6332  0.9703 -3.1892
 1606SOL     OW 4952   1.387   0.763   2.787 -0.4780 -0.3078 -0.7022
 1606SOL    HW1 4953   1.353   0.786   2.701  1.3630 -0.6149 -1.5513
 1606SOL    HW2 4954   1.339   0.683   2.811 -1.3744  0.0714 -1.1774
 1607SOL     OW 4955   4.867   1.701   2.682 -0.0526 -0.3585 -0.0926
 1607SOL    HW1 4956   4.851   1.732   2.592 -0.3900 -0.9724 -0.2471
 1607SOL    HW2 4957   4.962   1.701   2.690  0.2522 -3.8602 -1.7623
 1608SOL     OW 4958   0.916   2.013   1.878  0.0240  0.6019 -0.0377
 1608SOL    HW1 4959   1.003   2.042   1.850 -0.1113  1.9652  0.8658
 1608SOL    HW2 4960   0.858   2.037   1.805  0.4991 -1.2410 -1.1016
 1609SOL     OW 4961   0.883   0.877   1.802  0.1482  0.2952 -0.3964
 1609SOL    HW1 4962   0.867   0.783   1.808 -0.8136  0.4504 -0.3079
 1609SOL    HW2 4963   0.926   0.889   1.718  1.6658 -0.3857  0.2444
 1610SOL     OW 4964   4.702   2.374   2.951  0.5539 -0.2228  0.2875
 1610SOL    HW1 4965   4.751   2.408   3.025  0.7410 -1.1176  0.5919
 1610SOL    HW2 4966   4.611   2.372   2.981  0.6508 -0.7400  0.5678
 1611SOL     OW 4967   4.754   1.571   1.808  0.1133 -0.3848 -0.5765
 1611SOL    HW1 4968   4.714   1.591   1.724 -0.8637  0.8839  0.1489
 1611SOL    HW2 4969   4.686   1.525   1.857 -0.4134  1.4639  0.5366
 1612SOL     OW 4970   0.660   2.590   4.062  0.7870  0.8357 -0.3058
 1612SOL    HW1 4971   0.621   2.578   4.148  2.9371 -1.7547  0.4717
 1612SOL    HW2 4972   0.586   2.604   4.003 -0.9290  0.2792  1.6111
 1613SOL     OW 4973   1.204   3.684   2.303 -0.0674  0.5579  0.7509
 1613SOL    HW1 4974   1.231   3.597   2.331 -0.7410  0.6922  1.8810
 1613SOL    HW2 4975   1.183   3.675   2.211 -0.8793 -0.6609  1.0375
 1614SOL     OW 4976   1.190   0.288   2.902 -0.1876 -0.3447 -0.0513
 1614SOL    HW1 4977   1.187   0.308   2.995  1.0221 -0.8464  0.1134
 1614SOL    HW2 4978   1.113   0.233   2.887 -0.5872  0.0320  0.5717
 1615SOL     OW 4979   3.232   0.261   2.274  0.2750  0.2796  0.7702
 1615SOL    HW1 4980   3.142   0.235   2.256  1.1524 -2.7674  0.1927
 1615SOL    HW2 4981   3.265   0.295   2.191 -0.1489  0.7886  0.8087
 1616SOL     OW 4982   2.140   4.111   0.835  0.5347 -0.3149 -0.1856
 1616SOL    HW1 4983   2.202   4.183   0.822 -1.2795  1.1967 -0.8824
 1616SOL    HW2 4984   2.070   4.128   0.771 -1.0229 -1.4791  1.1370
 1617SOL     OW 4985   0.857   3.665   0.910  0.4782  0.0310 -0.6199
 1617SOL    HW1 4986   0.856   3.702   0.998 -1.0447 -1.6906  0.1721
 1617SOL    HW2 4987   0.799   3.722   0.859  1.3823  1.0441 -0.5513
 1618SOL     OW 4988   0.443   4.558   1.044 -0.1042  0.0495  0.1014
 1618SOL    HW1 4989   0.410   4.518   1.125  0.3333 -0.5653 -0.0166
 1618SOL    HW2 4990   0.491   4.488   1.000 -1.6024 -0.0639 -1.4484
 1619SOL     OW 4991   4.581   2.787   0.734  0.3622 -0.5765  0.1019
 1619SOL    HW1 4992   4.605   2.695   0.744  2.2134 -0.0817  0.5491
 1619SOL    HW2 4993   4.645   2.822   0.672  1.6188  1.0741  2.1926
 1620SOL     OW 4994   3.385   5.039   3.587 -0.4227 -0.0725  0.0833
 1620SOL    HW1 4995   3.380   4.950   3.551 -2.0506  0.1312 -0.2542
 1620SOL    HW2 4996   3.373   5.096   3.511  0.3882  0.4400  0.3338
 1621SOL     OW 4997   1.415   0.007   2.626  0.1313  0.5785  0.3198
 1621SOL    HW1 4998   1.428   0.074   2.693 -0.3347 -1.3104  2.4331
 1621SOL    HW2 4999   1.502  -0.029   2.609 -0.1081 -1.3660  2.7007
 1622SOL     OW 5000   3.164   4.631   0.667  0.5897  0.8596  0.6589
 1622SOL    HW1 5001   3.144   4.639   0.761 -1.4444 -0.5412  0.4011
 1622SOL    HW2 5002   3.118   4.705   0.627 -0.4788  0.1556  0.5484
 1623SOL     OW 5003   1.992   0.462   2.688 -0.3958  0.7621 -0.2942
 1623SOL    HW1 5004   1.940   0.490   2.612 -0.5165  2.0614  0.2297
 1623SOL    HW2 5005   1.941   0.493   2.763  1.4461  2.7334  0.2302
 1624SOL     OW 5006   3.673   0.211   3.483  0.1682 -0.0468 -0.7368
 1624SOL    HW1 5007   3.761   0.241   3.504 -0.0634  0.8102 -0.9390
 1624SOL    HW2 5008   3.655   0.142   3.547 -0.1460  1.7963  1.2863
 1625SOL     OW 5009   3.913   1.979   1.821 -0.6890  0.0753  0.2538
 1625SOL    HW1 5010   3.879   1.936   1.899  1.2803  0.5051  1.4016
 1625SOL    HW2 5011   3.835   1.999   1.769 -2.1359  0.6982  2.5427
 1626SOL     OW 5012   0.718   3.234   4.823  0.0171  0.3164  0.1111
 1626SOL    HW1 5013   0.665   3.228   4.903  0.3089 -1.0763  0.2119
 1626SOL    HW2 5014   0.803   3.198   4.848  0.0419 -0.3374 -0.8797
 1627SOL     OW 5015   1.439   3.353   2.083 -0.3584  0.4856  0.2673
 1627SOL    HW1 5016   1.500   3.322   2.016  0.0692  0.7500  0.5347
 1627SOL    HW2 5017   1.437   3.283   2.148  0.8638  1.1466  1.0390
 1628SOL     OW 5018   2.348   0.194   0.179 -0.3963  0.1245 -0.3190
 1628SOL    HW1 5019   2.418   0.254   0.208 -0.1492  0.2474 -1.1630
 1628SOL    HW2 5020   2.282   0.201   0.248  0.6759 -0.4640  0.8137
 1629SOL     OW 5021   2.497   2.069   4.349  0.2661 -0.2558 -0.0305
 1629SOL    HW1 5022   2.516   2.162   4.363  1.3328 -0.3175 -0.9406
 1629SOL    HW2 5023   2.569   2.038   4.295 -0.4010 -1.4805 -0.2420
 1630SOL     OW 5024   3.412   0.537   3.805 -0.3934  0.2093  0.1252
 1630SOL    HW1 5025   3.436   0.492   3.886 -0.9248 -0.9946 -0.3579
 1630SOL    HW2 5026   3.326   0.501   3.783  0.9784 -1.7425 -2.5381
 1631SOL     OW 5027   2.017   4.335   1.774 -0.0528  0.4564 -0.0279
 1631SOL    HW1 5028   1.993   4.286   1.695 -3.0028 -1.8059  2.0709
 1631SOL    HW2 5029   1.973   4.420   1.764 -2.6301 -0.7769  0.2358
 1632SOL     OW 5030   2.767   4.423   2.145 -0.3812  0.1231  0.4423
 1632SOL    HW1 5031   2.705   4.362   2.107 -0.3407 -0.2915  1.0322
 1632SOL    HW2 5032   2.785   4.389   2.232  0.8051  0.1345  0.2262
 1633SOL     OW 5033   3.128   1.014   2.225  0.3201 -0.0128  0.6209
 1633SOL    HW1 5034   3.205   0.959   2.215 -0.3504 -0.6476 -1.6688
 1633SOL    HW2 5035   3.084   1.010   2.140 -2.8133 -0.5656  2.1123
 1634SOL     OW 5036   1.713   0.802   4.385  0.6044  0.0503  0.0315
 1634SOL    HW1 5037   1.722   0.879   4.441 -1.5529 -0.2256  0.8461
 1634SOL    HW2 5038   1.715   0.727   4.445 -1.1857 -0.2859 -0.2908
 1635SOL     OW 5039   4.670   0.956   3.748  0.1040  0.6027 -0.6002
 1635SOL    HW1 5040   4.682   1.016   3.674 -0.5178  0.3841 -0.8825
 1635SOL    HW2 5041   4.667   1.014   3.824 -0.1310  0.9063 -0.8343
 1636SOL     OW 5042   1.779   1.106   0.169 -0.3219 -0.1329  0.0628
 1636SOL    HW1 5043   1.774   1.070   0.257  3.9787  2.2944  1.6055
 1636SOL    HW2 5044   1.826   1.040   0.118  0.2084 -0.1478  0.5632
 1637SOL     OW 5045   0.421   3.956   1.858 -0.5575 -0.1317  0.3838
 1637SOL    HW1 5046   0.456   4.011   1.928  0.2350  2.0424 -1.6247
 1637SOL    HW2 5047   0.385   3.880   1.904 -0.7043  1.5073  3.2022
 1638SOL     OW 5048   0.240   3.239   3.295 -0.3397  0.4391 -0.4694
 1638SOL    HW1 5049   0.300   3.271   3.362  0.9054  0.4547 -1.5468
 1638SOL    HW2 5050   0.214   3.152   3.325  0.0765  0.5084  0.1057
 1639SOL     OW 5051   1.678   4.798   2.657 -0.0485 -0.2850  0.3341
 1639SOL    HW1 5052   1.682   4.891   2.681  1.6244 -0.0744 -0.6292
 1639SOL    HW2 5053   1.760   4.762   2.691  0.7431 -0.7287 -1.9387
 1640SOL     OW 5054   4.394   4.494   3.751 -0.8825 -0.3695 -0.5310
 1640SOL    HW1 5055   4.437   4.471   3.669 -0.3538  1.8617 -0.9620
 1640SOL    HW2 5056   4.402   4.416   3.806  1.5223 -0.8708 -1.4843
 1641SOL     OW 5057   3.552   1.498   1.814  0.5184 -0.7676  0.0499
 1641SOL    HW1 5058   3.607   1.428   1.851  2.2442  0.9195  0.8872
 1641SOL    HW2 5059   3.493   1.522   1.886 -0.3097 -1.5525 -0.3491
 1642SOL     OW 5060   1.655   3.486   1.606  0.4173  0.4112  0.0610
 1642SOL    HW1 5061   1.695   3.541   1.674 -1.2551  0.8879  0.7070
 1642SOL    HW2 5062   1.702   3.403   1.612  0.3745  0.4683  1.7727
 1643SOL     OW 5063   0.589   4.628   0.444 -0.1973 -0.6906  0.3123
 1643SOL    HW1 5064   0.637   4.701   0.483  0.0594 -0.2917 -0.7140
 1643SOL    HW2 5065   0.642   4.601   0.369 -2.1844  0.7242 -1.7563
 1644SOL     OW 5066   3.195   1.813   3.897 -0.0127 -0.0015 -0.3895
 1644SOL    HW1 5067   3.270   1.869   3.877 -0.3659  0.5234 -0.2644
 1644SOL    HW2 5068   3.119   1.867   3.876 -0.3666 -0.1166  0.5359
 1645SOL     OW 5069   1.580   1.789   4.205  0.0762  0.6644 -0.4861
 1645SOL    HW1 5070   1.511   1.829   4.151 -1.1758 -0.5036  0.1601
 1645SOL    HW2 5071   1.596   1.704   4.163  2.1033  1.4452 -1.3830
 1646SOL     OW 5072   0.293   2.503   2.188 -0.6202 -0.3785  0.2366
 1646SOL    HW1 5073   0.326   2.490   2.098 -0.1897  4.3133 -0.5202
 1646SOL    HW2 5074   0.220   2.442   2.195 -0.4902 -1.1786 -3.1901
 1647SOL     OW 5075   1.782   4.193   4.623  0.4291 -0.6361  0.3065
 1647SOL    HW1 5076   1.773   4.150   4.538  2.7805 -1.1152  0.2266
 1647SOL    HW2 5077   1.829   4.130   4.677  1.6555  0.8190  1.0076
 1648SOL     OW 5078   3.978   1.351   1.544 -0.1619  0.6173  0.2622
 1648SOL    HW1 5079   4.021   1.429   1.580 -1.1094  1.0058  0.6040
 1648SOL    HW2 5080   4.017   1.340   1.457 -0.8724  2.2414 -0.3118
 1649SOL     OW 5081   4.314   1.190   0.017 -0.1675 -0.4474  0.3244
 1649SOL    HW1 5082   4.244   1.250  -0.010  0.7772  0.5792  0.1070
 1649SOL    HW2 5083   4.357   1.234   0.090  0.1697 -1.1363  0.5490
 1650SOL     OW 5084   0.804   1.147   0.740  0.0384 -0.0964 -0.0487
 1650SOL    HW1 5085   0.789   1.152   0.645  1.3075 -1.2108 -0.3474
 1650SOL    HW2 5086   0.757   1.222   0.776 -0.1134  0.5974 -1.6126
 1651SOL     OW 5087   2.970   4.015   4.731 -0.0729 -0.1254  0.0598
 1651SOL    HW1 5088   2.913   3.994   4.656 -0.5100  1.3242 -0.0424
 1651SOL    HW2 5089   2.923   3.981   4.807 -0.6478  0.2379 -0.1226
 1652SOL     OW 5090   0.524   4.683   4.868 -0.6564 -0.0073 -0.6070
 1652SOL    HW1 5091   0.508   4.605   4.815 -0.6412 -0.4213 -0.0022
 1652SOL    HW2 5092   0.466   4.749   4.830  0.6637  0.2542 -2.3325
 1653SOL     OW 5093   1.312   0.788   4.712 -0.2556  0.4440 -0.7992
 1653SOL    HW1 5094   1.372   0.733   4.761  0.4446  2.7415  1.1230
 1653SOL    HW2 5095   1.225   0.754   4.733  0.1495  0.1373  0.4325
 1654SOL     OW 5096   3.775   0.855   4.082  0.4217  0.1314  0.6430
 1654SOL    HW1 5097   3.728   0.791   4.029  0.2169  1.0702 -0.3486
 1654SOL    HW2 5098   3.724   0.861   4.163 -0.1138 -0.2314  0.3383
 1655SOL     OW 5099   1.511   4.169   0.508 -0.2914 -0.5515 -0.2406
 1655SOL    HW1 5100   1.469   4.221   0.576 -0.1321 -1.7495  0.8178
 1655SOL    HW2 5101   1.530   4.231   0.438 -0.7636  0.6499  0.6677
 1656SOL     OW 5102   4.121   1.694   4.449  0.2377 -0.0703  0.1137
 1656SOL    HW1 5103   4.033   1.724   4.427 -0.1186 -1.4036 -0.3688
 1656SOL    HW2 5104   4.175   1.773   4.444 -0.8814  0.7328  0.2332
 1657SOL     OW 5105   2.752   3.532   4.053  0.6950 -0.0214 -0.2534
 1657SOL    HW1 5106   2.665   3.556   4.019  1.4059 -0.0579 -2.2572
 1657SOL    HW2 5107   2.769   3.445   4.016  1.1193 -0.5377  1.0958
 1658SOL     OW 5108   4.189   0.612   3.212 -0.3036  0.0717  0.4773
 1658SOL    HW1 5109   4.226   0.607   3.300 -1.9235  1.0616  1.2827
 1658SOL    HW2 5110   4.173   0.521   3.187  0.4160 -0.2369  1.1081
 1659SOL     OW 5111   2.584   0.033   1.200 -0.4011 -0.0010  0.4193
 1659SOL    HW1 5112   2.603   0.126   1.190  1.0886 -0.1931  1.0901
 1659SOL    HW2 5113   2.598   0.016   1.294  0.0856 -1.0362  0.1727
 1660SOL     OW 5114   2.538   0.494   0.143 -0.0909 -0.0686 -0.3933
 1660SOL    HW1 5115   2.542   0.589   0.141 -0.9534 -0.0295 -0.8464
 1660SOL    HW2 5116   2.622   0.465   0.108  0.3735  0.5168  0.2145
 1661SOL     OW 5117   1.018   3.090   0.401 -0.9144  0.1940  0.0147
 1661SOL    HW1 5118   1.065   3.099   0.484  0.2737  1.8279 -0.7584
 1661SOL    HW2 5119   1.068   3.025   0.352 -1.4034 -0.5003  0.4213
 1662SOL     OW 5120   4.108   4.143   2.674 -0.2633  0.5258  0.3644
 1662SOL    HW1 5121   4.193   4.101   2.690 -0.5519  0.5097  2.0377
 1662SOL    HW2 5122   4.091   4.194   2.753 -1.9091  0.3640  0.1586
 1663SOL     OW 5123   2.509   2.223   2.171  0.5018  0.1123 -0.4832
 1663SOL    HW1 5124   2.449   2.173   2.116  0.2447  0.8994 -0.9424
 1663SOL    HW2 5125   2.499   2.313   2.140 -1.7977  1.1174  2.6663
 1664SOL     OW 5126   3.083   4.515   2.381  0.0798  0.1284 -0.3831
 1664SOL    HW1 5127   3.051   4.538   2.468  0.0498  1.0798 -0.6320
 1664SOL    HW2 5128   3.164   4.467   2.397 -0.3923 -0.4974  0.1859
 1665SOL     OW 5129   1.696   2.815   1.313  0.0110 -1.3092 -0.4397
 1665SOL    HW1 5130   1.630   2.865   1.266 -0.3310  1.6149  2.7229
 1665SOL    HW2 5131   1.646   2.749   1.362 -0.4535 -0.2050  0.6269
 1666SOL     OW 5132   0.082   1.358   0.867 -0.6095  0.6425 -0.1000
 1666SOL    HW1 5133   0.111   1.362   0.776 -0.2578 -0.9892 -0.0872
 1666SOL    HW2 5134  -0.013   1.367   0.862 -0.6653 -0.1541 -0.7118
 1667SOL     OW 5135   3.461   1.191   3.517  0.1608  0.0090 -0.2157
 1667SOL    HW1 5136   3.410   1.259   3.560  2.3547  0.4744  1.8941
 1667SOL    HW2 5137   3.508   1.236   3.447  0.8899  0.5202  0.5784
 1668SOL     OW 5138   3.654   4.263   2.431  0.2774 -0.2904 -0.6865
 1668SOL    HW1 5139   3.637   4.351   2.463  0.3293 -0.5629  0.1301
 1668SOL    HW2 5140   3.577   4.213   2.458  0.4915 -0.6108 -0.6634
 1669SOL     OW 5141   0.339   2.247   2.004  0.2158 -0.0255 -0.2874
 1669SOL    HW1 5142   0.311   2.187   2.074 -0.6159  0.0954 -0.5125
 1669SOL    HW2 5143   0.260   2.263   1.953  0.2991  1.7065  0.0897
 1670SOL     OW 5144   0.817   4.235   3.759 -0.5110  0.6502  0.2214
 1670SOL    HW1 5145   0.831   4.225   3.665 -0.3003 -0.5205  0.3593
 1670SOL    HW2 5146   0.736   4.284   3.767 -0.9095  0.1330 -0.5739
 1671SOL     OW 5147   0.528   1.943   4.583  0.2304  0.0442  0.6217
 1671SOL    HW1 5148   0.512   1.886   4.508 -0.5093  0.5885  0.3512
 1671SOL    HW2 5149   0.468   1.912   4.651  1.3817 -0.8906  1.2553
 1672SOL     OW 5150   0.514   1.262   3.054  0.1364 -0.1313 -0.2735
 1672SOL    HW1 5151   0.488   1.174   3.081 -0.3319 -0.1838 -0.8721
 1672SOL    HW2 5152   0.520   1.312   3.136 -1.4908 -0.2197 -0.0606
 1673SOL     OW 5153   0.330   1.616   4.152 -0.8830  0.4173  0.5722
 1673SOL    HW1 5154   0.259   1.660   4.105  0.4807  1.5690 -0.5126
 1673SOL    HW2 5155   0.287   1.573   4.226 -3.1023 -1.3829 -1.5976
 1674SOL     OW 5156   5.045   0.985   1.719 -0.3054 -0.0106  0.2426
 1674SOL    HW1 5157   4.984   0.927   1.765 -0.7139  0.7924  0.7334
 1674SOL    HW2 5158   5.042   0.956   1.628  0.8451 -1.9172  0.7534
 1675SOL     OW 5159   1.454   0.217   3.716  0.1214  0.8475  0.0154
 1675SOL    HW1 5160   1.431   0.127   3.692 -2.4333  0.8658  1.9981
 1675SOL    HW2 5161   1.491   0.254   3.636  2.0041 -2.1207 -0.6846
 1676SOL     OW 5162   1.549   2.023   0.038  0.7260  0.2356  0.6194
 1676SOL    HW1 5163   1.638   2.056   0.047  0.7252  0.6558 -0.6791
 1676SOL    HW2 5164   1.554   1.958  -0.032  0.3838 -1.2741  1.9419
 1677SOL     OW 5165   1.044   2.284   0.410  0.8893  0.3032 -0.6845
 1677SOL    HW1 5166   1.028   2.195   0.377  0.8217  1.0040 -2.6509
 1677SOL    HW2 5167   1.137   2.283   0.436  0.3435 -0.9525  1.5076
 1678SOL     OW 5168   2.443   3.138   4.488 -0.7017 -0.1354 -0.4648
 1678SOL    HW1 5169   2.525   3.118   4.532 -1.2514 -2.0998 -0.2522
 1678SOL    HW2 5170   2.426   3.230   4.510  0.8554 -0.0201  0.3886
 1679SOL     OW 5171   1.933   4.001   3.687 -0.1454 -0.2303 -0.2357
 1679SOL    HW1 5172   1.839   3.982   3.694 -0.1915  0.5115  1.8294
 1679SOL    HW2 5173   1.975   3.915   3.681 -0.8039 -0.6938  1.4288
 1680SOL     OW 5174   1.756   3.707   3.698 -0.1795 -0.6806 -0.5663
 1680SOL    HW1 5175   1.787   3.649   3.767  0.0097  0.0547 -0.0159
 1680SOL    HW2 5176   1.762   3.655   3.618 -3.5407 -2.7509  0.3269
 1681SOL     OW 5177   4.911   0.176   0.896 -0.2343  0.0783  0.3602
 1681SOL    HW1 5178   4.868   0.091   0.894  0.0369 -0.0934  1.3212
 1681SOL    HW2 5179   4.840   0.239   0.885 -0.1369 -0.2669 -3.6016
 1682SOL     OW 5180   4.249   3.856   4.517  0.1728 -0.0041 -0.1138
 1682SOL    HW1 5181   4.251   3.789   4.586  0.9584  0.8146  0.6873
 1682SOL    HW2 5182   4.341   3.879   4.504 -0.1438  1.4979  0.1924
 1683SOL     OW 5183   1.056   4.312   2.281  0.0827 -0.4334 -0.1837
 1683SOL    HW1 5184   1.133   4.356   2.318 -0.2909  2.3546 -2.4428
 1683SOL    HW2 5185   1.077   4.299   2.189 -1.1468 -2.1659 -0.2778
 1684SOL     OW 5186   1.651   1.738   1.215 -0.1204 -0.3607  0.9878
 1684SOL    HW1 5187   1.683   1.761   1.302  2.6793  2.3468 -0.5732
 1684SOL    HW2 5188   1.714   1.776   1.154 -2.7498 -0.7565 -2.3421
 1685SOL     OW 5189   0.047   4.845   0.206  0.5287 -0.3336  0.2587
 1685SOL    HW1 5190   0.023   4.887   0.289  0.1473  0.2976 -0.1611
 1685SOL    HW2 5191   0.110   4.904   0.166 -2.0238  1.3497 -1.6119
 1686SOL     OW 5192   0.697   1.612   3.010 -0.3291 -0.3267  0.2819
 1686SOL    HW1 5193   0.616   1.648   2.974 -0.6242 -1.9468 -0.8045
 1686SOL    HW2 5194   0.757   1.686   3.016 -1.3771  0.5963 -0.4294
 1687SOL     OW 5195   2.093   3.805   1.083  0.2289  0.8297  0.7597
 1687SOL    HW1 5196   2.072   3.740   1.151  0.6139 -1.2098 -0.9687
 1687SOL    HW2 5197   2.179   3.779   1.051  0.0634  1.7708 -0.4866
 1688SOL     OW 5198   3.409   2.096   2.691 -0.0576  0.7185  0.3581
 1688SOL    HW1 5199   3.322   2.128   2.714 -0.5452 -0.1832 -0.1622
 1688SOL    HW2 5200   3.468   2.142   2.750 -1.0514  0.1430  1.8521
 1689SOL     OW 5201   0.809   1.046   2.751 -0.0106 -0.3102 -0.3246
 1689SOL    HW1 5202   0.803   1.103   2.828 -1.3893 -0.7917 -0.0597
 1689SOL    HW2 5203   0.894   1.002   2.761  0.2048  0.2665  0.4697
 1690SOL     OW 5204   4.562   0.135   2.564 -0.7830  0.0709  0.1638
 1690SOL    HW1 5205   4.480   0.183   2.572 -0.4726  0.7344 -0.6290
 1690SOL    HW2 5206   4.600   0.137   2.652 -2.2461 -1.4273  0.8943
 1691SOL     OW 5207   1.587   1.945   0.832  0.3056  0.6356  0.0368
 1691SOL    HW1 5208   1.594   1.849   0.835 -1.7617  0.3752 -1.0346
 1691SOL    HW2 5209   1.664   1.974   0.783  0.8953 -0.4872  0.2730
 1692SOL     OW 5210   3.807   3.620   0.927 -0.0313  0.8908  0.0439
 1692SOL    HW1 5211   3.790   3.536   0.970  2.1734  0.3599 -0.0249
 1692SOL    HW2 5212   3.720   3.650   0.900 -1.2192 -0.0666  2.4079
 1693SOL     OW 5213   1.396   4.081   2.781  0.0060 -0.7180  0.6344
 1693SOL    HW1 5214   1.456   4.093   2.854  0.6402 -2.1357  0.3705
 1693SOL    HW2 5215   1.414   4.155   2.723 -0.1738  0.1600  1.6579
 1694SOL     OW 5216   3.178   4.974   3.125 -0.1033  0.2555  0.0489
 1694SOL    HW1 5217   3.270   4.959   3.145 -0.6222 -0.8043  1.9035
 1694SOL    HW2 5218   3.168   5.069   3.128  0.7623  0.3432  0.7198
 1695SOL     OW 5219   4.065   2.325   4.720  0.7956 -0.2247 -0.4684
 1695SOL    HW1 5220   4.042   2.232   4.720 -2.3851  0.4454 -0.1248
 1695SOL    HW2 5221   4.001   2.365   4.778  0.3204  2.5747 -2.7185
 1696SOL     OW 5222   4.926   1.666   3.879  0.5861 -0.2467  0.8114
 1696SOL    HW1 5223   5.016   1.657   3.845  0.1264 -1.7304 -0.1429
 1696SOL    HW2 5224   4.918   1.758   3.903  1.3206  0.7357 -2.2062
 1697SOL     OW 5225   3.262   0.253   3.887 -0.9833  0.6517  0.3417
 1697SOL    HW1 5226   3.350   0.215   3.882 -0.4560  1.9712 -1.1172
 1697SOL    HW2 5227   3.255   0.286   3.976  0.3240  1.2150  0.2605
 1698SOL     OW 5228   0.275   3.667   4.163  0.1089 -0.0496  0.9555
 1698SOL    HW1 5229   0.288   3.598   4.097 -1.7905  0.5534 -0.1312
 1698SOL    HW2 5230   0.315   3.745   4.124  1.5591 -0.3114  1.8430
 1699SOL     OW 5231   5.029   4.074   1.701 -0.2705  0.3676  0.0047
 1699SOL    HW1 5232   4.942   4.111   1.716  0.0592  0.2408  2.5362
 1699SOL    HW2 5233   5.020   3.982   1.722  0.4322  0.3026  0.0416
 1700SOL     OW 5234   0.755   4.416   0.123  0.5176  0.2036 -0.2760
 1700SOL    HW1 5235   0.660   4.421   0.112  0.6603  2.9683 -1.0420
 1700SOL    HW2 5236   0.775   4.480   0.191  1.8203 -0.7809  0.3260
 1701SOL     OW 5237   3.559   2.786   2.897 -0.5790  0.3338  0.1501
 1701SOL    HW1 5238   3.649   2.797   2.864  0.3937 -0.8293  2.2460
 1701SOL    HW2 5239   3.504   2.803   2.820  1.2906  3.1297 -0.7523
 1702SOL     OW 5240   1.265   3.766   1.048  0.0255 -0.1469 -0.2486
 1702SOL    HW1 5241   1.247   3.846   1.097 -0.4163 -0.1271 -0.4428
 1702SOL    HW2 5242   1.360   3.753   1.057  0.1270  0.5004 -0.3784
 1703SOL     OW 5243   4.048   3.036   3.468 -0.2786 -0.2769 -0.1917
 1703SOL    HW1 5244   3.980   3.001   3.526  0.3439 -1.6667 -0.2729
 1703SOL    HW2 5245   4.057   3.128   3.495 -2.8273  0.2232 -0.7979
 1704SOL     OW 5246   2.960   0.194   2.271 -0.1035  0.0802 -0.3296
 1704SOL    HW1 5247   2.895   0.222   2.206 -2.8612 -1.2098  1.6721
 1704SOL    HW2 5248   2.914   0.200   2.354  2.4177 -0.9063  1.2405
 1705SOL     OW 5249   0.256   2.555   3.817  0.0545 -0.3986 -0.5612
 1705SOL    HW1 5250   0.221   2.494   3.752  1.7997 -0.1912 -1.7782
 1705SOL    HW2 5251   0.349   2.564   3.793  0.8377 -0.4746  2.0995
 1706SOL     OW 5252   2.103   1.556   1.598 -0.2278  0.0087  0.1595
 1706SOL    HW1 5253   2.070   1.541   1.687 -0.9005  0.3195 -0.0336
 1706SOL    HW2 5254   2.046   1.624   1.563 -0.1080 -0.2790 -0.5926
 1707SOL     OW 5255   1.187   2.681   1.375  0.1482 -0.2251 -0.3395
 1707SOL    HW1 5256   1.154   2.592   1.386 -0.9872  0.3822  1.6940
 1707SOL    HW2 5257   1.272   2.681   1.419 -0.6036  0.0713  1.1797
 1708SOL     OW 5258   3.770   4.133   2.111 -0.1601  0.3869  0.1462
 1708SOL    HW1 5259   3.677   4.154   2.106 -0.6321 -1.5921 -0.1763
 1708SOL    HW2 5260   3.812   4.198   2.055 -2.0177 -2.0565 -4.6663
 1709SOL     OW 5261   3.912   3.831   1.747 -0.8394 -0.7544  0.5314
 1709SOL    HW1 5262   4.002   3.861   1.758 -0.5896 -1.3691  0.2188
 1709SOL    HW2 5263   3.886   3.865   1.661 -0.9975 -0.3691  0.7267
 1710SOL     OW 5264   2.756   1.967   1.694 -0.0936  0.6647  0.4290
 1710SOL    HW1 5265   2.796   1.973   1.781 -1.0104  2.1861  0.7800
 1710SOL    HW2 5266   2.663   1.978   1.710 -0.5882 -1.6137 -0.5068
 1711SOL     OW 5267   0.766   2.748   3.680  0.0787 -0.1348 -0.0315
 1711SOL    HW1 5268   0.800   2.690   3.612 -0.0696 -0.4533  0.1638
 1711SOL    HW2 5269   0.841   2.763   3.739 -0.2326 -1.2435  0.6789
 1712SOL     OW 5270   1.975   2.249   2.996  0.4007  0.0004  0.0206
 1712SOL    HW1 5271   1.927   2.166   3.004 -0.2608  0.4575  0.9158
 1712SOL    HW2 5272   2.056   2.225   2.952 -0.9774 -0.6585 -2.3570
 1713SOL     OW 5273   0.703   1.815   1.700  0.1122 -0.0721  0.3101
 1713SOL    HW1 5274   0.656   1.877   1.644  0.5506  0.2505  0.2990
 1713SOL    HW2 5275   0.783   1.796   1.652  0.7032  0.5582  1.0372
 1714SOL     OW 5276   4.464   4.812   4.921  0.2091 -0.7055  0.4496
 1714SOL    HW1 5277   4.484   4.885   4.863 -1.2111  1.3121  2.3269
 1714SOL    HW2 5278   4.543   4.757   4.918  0.8851  0.2566 -1.8910
 1715SOL     OW 5279   2.813   3.990   3.172 -0.2145  0.0785  0.0934
 1715SOL    HW1 5280   2.851   4.069   3.134  0.8370  0.2635  1.4549
 1715SOL    HW2 5281   2.790   3.935   3.096 -0.3408  1.3899 -0.8440
 1716SOL     OW 5282   3.934   4.604   4.711  0.1595 -0.5695 -0.3000
 1716SOL    HW1 5283   3.853   4.587   4.662  1.5224 -0.2551 -2.8731
 1716SOL    HW2 5284   3.996   4.538   4.678  1.7851  1.0573 -0.6956
 1717SOL     OW 5285   3.543   2.717   1.322  0.5790  0.3186 -0.7952
 1717SOL    HW1 5286   3.596   2.764   1.387  0.6130 -1.8995  0.9181
 1717SOL    HW2 5287   3.573   2.626   1.329 -2.1670 -0.6897 -1.0866
 1718SOL     OW 5288   4.071   0.058   0.092 -0.3658  0.3293 -0.6793
 1718SOL    HW1 5289   4.095   0.134   0.039 -1.0199  0.9005 -0.1799
 1718SOL    HW2 5290   4.122   0.068   0.173 -2.0151  1.4168  0.2837
 1719SOL     OW 5291   2.006   3.397   0.870 -0.2134 -0.1452  0.1771
 1719SOL    HW1 5292   1.947   3.417   0.943 -1.5045 -1.4393 -0.4657
 1719SOL    HW2 5293   2.089   3.375   0.911 -0.0551  1.9410  1.0976
 1720SOL     OW 5294   0.695   3.486   2.256 -0.7795 -0.8805 -0.4136
 1720SOL    HW1 5295   0.674   3.415   2.316 -0.6251  0.6774  1.5915
 1720SOL    HW2 5296   0.786   3.469   2.230 -1.1475 -2.0732 -0.9916
 1721SOL     OW 5297   2.824   1.607   1.135 -0.5471  0.3642  0.0889
 1721SOL    HW1 5298   2.809   1.608   1.230  0.7075  1.1303  0.2977
 1721SOL    HW2 5299   2.898   1.549   1.123  0.0466  1.1801 -0.2908
 1722SOL     OW 5300   1.027   4.296  -0.025 -0.1817 -0.2012 -0.0806
 1722SOL    HW1 5301   1.063   4.298   0.063 -1.0650 -0.0747  0.2906
 1722SOL    HW2 5302   0.965   4.369  -0.027 -0.4276 -0.4196 -0.6870
 1723SOL     OW 5303   2.850   1.618   3.433  0.3049  0.0642  0.1648
 1723SOL    HW1 5304   2.833   1.553   3.365  0.3878  2.1282 -1.9674
 1723SOL    HW2 5305   2.780   1.604   3.497  0.7185 -2.5028  0.1657
 1724SOL     OW 5306   1.784   4.854   1.884  0.5942 -0.4365 -0.2678
 1724SOL    HW1 5307   1.862   4.800   1.892 -1.2383 -3.2239  0.2009
 1724SOL    HW2 5308   1.719   4.797   1.842 -1.8315  1.0303  1.2227
 1725SOL     OW 5309   0.814   1.832   0.322  0.1779 -0.3988 -0.4883
 1725SOL    HW1 5310   0.749   1.795   0.262 -0.5154 -1.4535  0.8368
 1725SOL    HW2 5311   0.880   1.763   0.330  0.2727 -0.2641 -0.0895
 1726SOL     OW 5312   3.108   1.600   4.075 -0.3260 -0.0258  0.0775
 1726SOL    HW1 5313   3.105   1.511   4.039  0.8710 -1.0734  2.4031
 1726SOL    HW2 5314   3.124   1.656   3.999 -2.0650 -1.6379 -1.5929
 1727SOL     OW 5315   1.002   3.992   2.802 -0.0549  0.2227  0.3610
 1727SOL    HW1 5316   0.988   4.077   2.844  0.8018  0.0991  0.9308
 1727SOL    HW2 5317   1.016   3.931   2.874  0.7947 -0.1224 -0.0734
 1728SOL     OW 5318   1.665   0.742   1.956 -0.1649  0.6798 -0.6423
 1728SOL    HW1 5319   1.691   0.735   1.864 -0.8646  0.1281 -0.8062
 1728SOL    HW2 5320   1.680   0.834   1.978  0.0748  0.8036 -1.2859
 1729SOL     OW 5321   0.813   4.694   0.999 -0.3891  0.1043  0.0687
 1729SOL    HW1 5322   0.743   4.758   0.985  0.6706  0.6611 -3.9987
 1729SOL    HW2 5323   0.889   4.731   0.954  0.9875 -2.8537 -0.2833
 1730SOL     OW 5324   2.146   2.554   0.438  0.0885 -0.5497  0.8469
 1730SOL    HW1 5325   2.192   2.584   0.360 -2.7190 -2.5574 -1.8347
 1730SOL    HW2 5326   2.053   2.567   0.417 -0.8040 -1.5654  3.7197
 1731SOL     OW 5327   1.927   4.951   4.813 -0.5674  0.0273 -0.4164
 1731SOL    HW1 5328   1.936   5.006   4.735  1.0234  1.2133  0.5402
 1731SOL    HW2 5329   1.835   4.958   4.836 -0.8221  0.6105 -1.5288
 1732SOL     OW 5330   3.549   0.987   2.196  0.2613  0.2702 -0.3428
 1732SOL    HW1 5331   3.493   1.063   2.178  0.2344  0.8645  1.9383
 1732SOL    HW2 5332   3.489   0.913   2.197 -0.0517  0.5158 -0.4793
 1733SOL     OW 5333   2.498   1.985   1.840 -0.3492  0.2936  0.5616
 1733SOL    HW1 5334   2.447   2.045   1.894 -0.6041 -0.6047  1.3306
 1733SOL    HW2 5335   2.499   1.903   1.888 -1.3011 -0.8045 -1.1788
 1734SOL     OW 5336   2.038   0.340   3.807 -0.0436  0.4335 -0.0164
 1734SOL    HW1 5337   1.965   0.369   3.752 -0.6464  0.5713  0.8309
 1734SOL    HW2 5338   2.006   0.353   3.897  1.3388  1.3034  0.3810
 1735SOL     OW 5339   2.698   0.063   0.495 -0.1213  0.1095 -0.4868
 1735SOL    HW1 5340   2.778   0.073   0.545  0.0002  2.8540 -1.1085
 1735SOL    HW2 5341   2.716  -0.011   0.436  0.4270 -1.8985  2.0222
 1736SOL     OW 5342   2.621   1.240   3.487  0.8740 -0.5531 -0.0788
 1736SOL    HW1 5343   2.654   1.199   3.567 -1.0558 -0.1238  1.0078
 1736SOL    HW2 5344   2.558   1.305   3.518  0.0046 -0.4385 -1.9644
 1737SOL     OW 5345   3.149   3.023   4.750 -0.2987  0.3258  0.2478
 1737SOL    HW1 5346   3.180   3.069   4.672 -0.1898  0.4335  0.3549
 1737SOL    HW2 5347   3.169   2.931   4.733  0.6816  0.4625  0.5908
 1738SOL     OW 5348   2.870   1.553   2.744 -0.2240 -0.2549 -0.3511
 1738SOL    HW1 5349   2.780   1.532   2.721  0.3190 -2.4805 -0.6727
 1738SOL    HW2 5350   2.916   1.555   2.660  0.2124 -0.2170 -0.1138
 1739SOL     OW 5351   1.896   2.722   4.478  0.1491  0.0083 -0.2707
 1739SOL    HW1 5352   1.816   2.765   4.509  0.5951  0.1399  0.7324
 1739SOL    HW2 5353   1.962   2.791   4.478  0.3845 -0.2121 -0.6379
 1740SOL     OW 5354   1.672   3.969   3.678 -0.7406  0.5490 -0.2573
 1740SOL    HW1 5355   1.703   3.962   3.588 -0.0474 -1.0375  0.0630
 1740SOL    HW2 5356   1.676   3.879   3.712  0.0246  1.2519  1.6660
 1741SOL     OW 5357   2.443   2.403   2.654 -0.0518 -0.4864  0.6325
 1741SOL    HW1 5358   2.464   2.381   2.564 -0.7893 -2.7564  0.9472
 1741SOL    HW2 5359   2.472   2.494   2.664  1.4647 -0.6656 -1.4133
 1742SOL     OW 5360   2.298   3.571   0.594  0.1284 -0.8652  0.3124
 1742SOL    HW1 5361   2.376   3.543   0.642  1.8910  0.9306 -1.3068
 1742SOL    HW2 5362   2.291   3.509   0.522  0.2981 -0.8189  0.2545
 1743SOL     OW 5363   4.427   2.989   4.139  1.0433 -0.0288 -0.4339
 1743SOL    HW1 5364   4.351   2.942   4.173 -0.3261  2.6903  0.4813
 1743SOL    HW2 5365   4.480   3.008   4.217  0.0173  2.5172 -0.2676
 1744SOL     OW 5366   0.028   3.018   1.790  0.4535  0.0854  0.2096
 1744SOL    HW1 5367  -0.011   2.937   1.823  0.2864 -0.0489 -0.3103
 1744SOL    HW2 5368   0.070   2.993   1.708 -0.2546  0.6739 -0.3487
 1745SOL     OW 5369   2.535   4.419   1.159 -0.0433 -0.3606 -0.3692
 1745SOL    HW1 5370   2.598   4.354   1.129  0.0560 -1.3021  1.7315
 1745SOL    HW2 5371   2.456   4.369   1.180  0.0497  0.1477  1.3313
 1746SOL     OW 5372   4.814   4.232   4.012 -0.1635  0.0741 -0.2749
 1746SOL    HW1 5373   4.840   4.324   4.010 -1.4656  0.5166  0.8202
 1746SOL    HW2 5374   4.882   4.186   3.964  0.7300  1.5611 -0.4966
 1747SOL     OW 5375   3.055   2.113   1.277  0.0400  0.3699 -0.2722
 1747SOL    HW1 5376   3.078   2.203   1.302  0.3556 -0.2224  1.7389
 1747SOL    HW2 5377   2.979   2.092   1.331 -1.0486 -0.0453 -1.9127
 1748SOL     OW 5378   0.571   0.194   4.889 -0.3737 -0.2474 -0.1976
 1748SOL    HW1 5379   0.562   0.200   4.794 -0.6068  0.6940 -0.1182
 1748SOL    HW2 5380   0.614   0.275   4.915 -1.8750  0.3134  0.6926
 1749SOL     OW 5381   1.183   1.248   2.822  0.2439 -0.0043 -0.0947
 1749SOL    HW1 5382   1.175   1.258   2.727  0.9055  0.2075 -0.1324
 1749SOL    HW2 5383   1.122   1.312   2.858 -0.8775 -0.8733 -0.3696
 1750SOL     OW 5384   2.744   0.949   4.538  0.6226 -0.6515 -0.0106
 1750SOL    HW1 5385   2.671   1.005   4.511  1.2776  0.4850  0.5179
 1750SOL    HW2 5386   2.822   1.002   4.523  1.2067 -1.0887  1.3271
 1751SOL     OW 5387   0.766   3.642   3.713  0.4219 -0.3755 -0.4916
 1751SOL    HW1 5388   0.777   3.705   3.641 -2.0527  1.5113  0.6443
 1751SOL    HW2 5389   0.854   3.609   3.730  1.6173  1.8200 -2.0026
 1752SOL     OW 5390   4.102   4.872   2.309 -0.2133  0.0523 -0.3442
 1752SOL    HW1 5391   4.048   4.950   2.324  0.0204  0.1502 -0.0048
 1752SOL    HW2 5392   4.191   4.900   2.331 -0.0588 -0.1798 -0.6628
 1753SOL     OW 5393   1.710   3.136   2.422  0.7633 -0.2143  0.9617
 1753SOL    HW1 5394   1.668   3.112   2.504  0.3984  1.4180  1.2877
 1753SOL    HW2 5395   1.721   3.231   2.428  4.4165 -0.4784  0.8734
 1754SOL     OW 5396   2.369   4.659   3.926  0.2974 -0.7548 -0.0451
 1754SOL    HW1 5397   2.296   4.606   3.960  0.5732 -1.6791 -0.8441
 1754SOL    HW2 5398   2.428   4.667   4.001 -0.9317  0.6252  0.8273
 1755SOL     OW 5399   0.510   2.849   3.110  0.5861  0.5023 -0.2967
 1755SOL    HW1 5400   0.428   2.899   3.109 -1.0917 -2.0329  0.0086
 1755SOL    HW2 5401   0.492   2.774   3.053  2.1157 -0.9942  1.0985
 1756SOL     OW 5402   4.644   4.286   4.461  0.2199  0.2743  0.4308
 1756SOL    HW1 5403   4.686   4.241   4.388  0.5647  0.7803  0.3190
 1756SOL    HW2 5404   4.691   4.255   4.539 -1.9720 -2.5533  0.8265
 1757SOL     OW 5405   3.877   3.274   2.226 -0.1775  0.4465  0.0284
 1757SOL    HW1 5406   3.852   3.361   2.196  0.4556  0.9538  0.9245
 1757SOL    HW2 5407   3.798   3.222   2.218 -0.3567  0.8808 -1.3016
 1758SOL     OW 5408   1.453   2.389   3.925  0.0793 -0.1409  0.0814
 1758SOL    HW1 5409   1.420   2.429   3.844  0.9294 -1.3988 -0.9357
 1758SOL    HW2 5410   1.375   2.373   3.978 -0.7102 -0.9447 -1.2770
 1759SOL     OW 5411   1.840   4.611   4.889 -0.4500  0.0448  0.2123
 1759SOL    HW1 5412   1.899   4.686   4.887  0.1172 -0.4060 -1.8322
 1759SOL    HW2 5413   1.868   4.561   4.966  2.0819 -0.3031 -0.8393
 1760SOL     OW 5414   4.730   0.606   4.843 -0.0804 -0.1340 -0.2597
 1760SOL    HW1 5415   4.742   0.537   4.778 -2.6546 -0.3797 -0.5587
 1760SOL    HW2 5416   4.642   0.640   4.827 -1.1049 -0.6045  3.4266
 1761SOL     OW 5417   2.702   0.035   0.943 -0.4492 -0.0394  0.4584
 1761SOL    HW1 5418   2.710  -0.056   0.916 -1.6081 -0.1114  0.3072
 1761SOL    HW2 5419   2.666   0.030   1.032 -0.4048  0.2674  0.4947
 1762SOL     OW 5420   2.094   0.510   0.060 -0.3641  0.5559  0.0211
 1762SOL    HW1 5421   2.150   0.555  -0.004 -0.9086  0.2413 -0.6967
 1762SOL    HW2 5422   2.007   0.550   0.048 -0.8120 -0.5359 -0.4954
 1763SOL     OW 5423   3.758   3.112   0.270 -0.0461 -0.1751 -0.3466
 1763SOL    HW1 5424   3.736   3.203   0.290 -0.5670 -0.1405 -1.0306
 1763SOL    HW2 5425   3.730   3.100   0.179  3.3443  0.0386 -1.5394
 1764SOL     OW 5426   3.653   3.987   2.328 -0.0034  0.1761 -0.0079
 1764SOL    HW1 5427   3.717   3.993   2.258 -1.8477 -1.2056 -1.9421
 1764SOL    HW2 5428   3.651   4.074   2.367  1.8444  0.6692 -0.9245
 1765SOL     OW 5429   2.559   0.765   0.168  0.0173  0.3143  0.4834
 1765SOL    HW1 5430   2.480   0.812   0.142  0.4315  0.2656 -0.9853
 1765SOL    HW2 5431   2.606   0.826   0.225 -0.6113  0.7165  0.5790
 1766SOL     OW 5432   2.787   4.587   1.826 -0.2578  0.3747  0.7527
 1766SOL    HW1 5433   2.733   4.538   1.888 -0.7892  0.9853  0.7786
 1766SOL    HW2 5434   2.873   4.592   1.869 -0.0183 -1.0463  0.4742
 1767SOL     OW 5435   4.492   3.485   1.541 -0.4460  0.6347 -0.1262
 1767SOL    HW1 5436   4.550   3.409   1.535 -1.2517 -0.0404  0.3002
 1767SOL    HW2 5437   4.477   3.497   1.634 -1.7491  0.1741 -0.2461
 1768SOL     OW 5438   2.077   2.519  -0.013  0.4268 -0.0695 -0.1378
 1768SOL    HW1 5439   2.112   2.430  -0.001  2.7845  0.8607  0.6069
 1768SOL    HW2 5440   2.115   2.569   0.060 -1.3728  1.4205 -0.1592
 1769SOL     OW 5441   0.840   2.155   4.797  0.8657 -0.4997 -0.3380
 1769SOL    HW1 5442   0.866   2.241   4.832  0.5372  0.1140 -1.5203
 1769SOL    HW2 5443   0.761   2.132   4.846  0.3613  0.3793 -0.7069
 1770SOL     OW 5444   3.529   0.920   0.227  0.1306 -0.2486  0.0834
 1770SOL    HW1 5445   3.594   0.887   0.289 -0.3419 -0.2808  0.5665
 1770SOL    HW2 5446   3.554   0.880   0.143  0.5465 -0.5104  0.3287
 1771SOL     OW 5447   2.052   2.591   0.696  0.1139 -0.3561 -0.1508
 1771SOL    HW1 5448   2.108   2.535   0.749  1.3567 -0.0530 -1.0997
 1771SOL    HW2 5449   2.080   2.576   0.606 -1.0051  0.1844 -0.6185
 1772SOL     OW 5450   4.312   0.061   3.158 -0.1394  0.4418 -0.3264
 1772SOL    HW1 5451   4.252  -0.009   3.133 -0.2110  0.3516  0.0927
 1772SOL    HW2 5452   4.353   0.030   3.239 -0.2714  0.9411 -0.0654
 1773SOL     OW 5453   1.180   4.849   0.619  0.3470  0.4307 -0.4853
 1773SOL    HW1 5454   1.192   4.931   0.571  0.2869  1.4768  1.2157
 1773SOL    HW2 5455   1.140   4.876   0.702  1.0195 -1.2425  0.4128
 1774SOL     OW 5456   0.047   4.550   2.680  0.1496 -0.6443 -0.2882
 1774SOL    HW1 5457  -0.000   4.479   2.724 -0.5113 -0.6093 -0.9406
 1774SOL    HW2 5458   0.129   4.510   2.651  0.3384 -0.8160  0.4416
 1775SOL     OW 5459   4.745   1.502   0.758 -0.0220 -0.3243 -0.1551
 1775SOL    HW1 5460   4.652   1.491   0.739  0.4407 -2.7749 -1.4812
 1775SOL    HW2 5461   4.755   1.470   0.848 -0.2093 -2.0477 -0.7106
 1776SOL     OW 5462   0.203   3.324   3.810  0.2452 -0.2096 -0.0547
 1776SOL    HW1 5463   0.109   3.313   3.824  0.2978  1.0491  1.5773
 1776SOL    HW2 5464   0.236   3.234   3.803 -0.7917 -0.7675  1.6039
 1777SOL     OW 5465   1.825   1.879   4.093  0.2058  1.0073 -0.5172
 1777SOL    HW1 5466   1.856   1.827   4.167  2.0355  0.6260 -1.5006
 1777SOL    HW2 5467   1.730   1.881   4.104  0.4025  0.8194  1.7321
 1778SOL     OW 5468   4.737   4.569   1.011 -1.2738  0.1175 -0.3982
 1778SOL    HW1 5469   4.801   4.509   1.048 -2.3443 -1.4992 -1.0392
 1778SOL    HW2 5470   4.780   4.604   0.932 -1.5452 -1.8213 -1.4580
 1779SOL     OW 5471   3.317   3.174   0.319 -0.1193 -0.0412  0.1195
 1779SOL    HW1 5472   3.305   3.081   0.299 -0.9660  0.2529 -0.8560
 1779SOL    HW2 5473   3.274   3.220   0.247 -0.0832  1.1158  0.8004
 1780SOL     OW 5474   2.783   2.572   3.509 -0.1533 -0.0391 -0.6146
 1780SOL    HW1 5475   2.825   2.486   3.515  0.4635  0.3040  0.2401
 1780SOL    HW2 5476   2.846   2.632   3.548 -1.3323  0.5313  0.4838
 1781SOL     OW 5477   4.662   0.705   1.410  0.0716  0.0898  0.6786
 1781SOL    HW1 5478   4.643   0.774   1.474 -0.2841  0.8233 -0.1872
 1781SOL    HW2 5479   4.730   0.743   1.354  1.1154 -0.9268  1.2014
 1782SOL     OW 5480   2.296   1.403   2.529  0.1104  0.1318  0.0562
 1782SOL    HW1 5481   2.239   1.333   2.562  0.5360 -0.1381  0.2277
 1782SOL    HW2 5482   2.384   1.371   2.546  0.3292  0.1412 -1.0433
 1783SOL     OW 5483   1.610   2.977   3.884 -0.3661  0.2930  0.1563
 1783SOL    HW1 5484   1.584   3.058   3.927 -0.1500  1.3840 -1.6560
 1783SOL    HW2 5485   1.585   2.908   3.945 -2.2355  1.6074  0.9618
 1784SOL     OW 5486   0.468   1.755   2.957  0.1324 -0.6588  0.0002
 1784SOL    HW1 5487   0.400   1.735   3.021 -0.0528  0.8784  0.3084
 1784SOL    HW2 5488   0.421   1.758   2.873 -0.1909  0.3097  0.2005
 1785SOL     OW 5489   0.418   3.997   2.453 -0.3647 -0.1299 -0.3061
 1785SOL    HW1 5490   0.364   3.953   2.519 -0.9178  0.6302 -0.2350
 1785SOL    HW2 5491   0.498   4.021   2.499 -1.4441  1.9358  0.5989
 1786SOL     OW 5492   2.315   1.523   1.375 -0.4089  0.3740  0.7599
 1786SOL    HW1 5493   2.255   1.461   1.334 -1.8917  1.4224  1.2562
 1786SOL    HW2 5494   2.261   1.600   1.393  1.2062  1.5188  0.8520
 1787SOL     OW 5495   0.040   0.311   4.419 -0.0287  0.8017 -0.2395
 1787SOL    HW1 5496   0.073   0.221   4.426  0.8876  0.9543 -2.0359
 1787SOL    HW2 5497   0.112   0.360   4.381 -1.6277  1.5865 -2.4607
 1788SOL     OW 5498   4.358   3.607   3.368 -0.1865 -0.5568 -0.5058
 1788SOL    HW1 5499   4.442   3.638   3.401 -0.2949 -0.1129 -0.6308
 1788SOL    HW2 5500   4.357   3.513   3.386  0.3747 -0.5791 -0.5978
 1789SOL     OW 5501   3.426   1.816   3.231  0.4912 -0.8896  0.1634
 1789SOL    HW1 5502   3.394   1.764   3.158  0.3539  2.3775 -2.3388
 1789SOL    HW2 5503   3.361   1.885   3.241  1.6127 -0.0388  1.9691
 1790SOL     OW 5504   1.035   0.883   2.685 -0.1437 -0.2140 -0.1226
 1790SOL    HW1 5505   0.976   0.873   2.610  0.4404 -0.1879 -0.6043
 1790SOL    HW2 5506   1.115   0.836   2.657  0.7014  1.2331 -0.2160
 1791SOL     OW 5507   0.544   1.313   1.112  0.3631 -0.2640  0.3294
 1791SOL    HW1 5508   0.461   1.273   1.085  0.2715  1.4352 -2.3711
 1791SOL    HW2 5509   0.521   1.368   1.187 -1.1104  0.5518 -0.6706
 1792SOL     OW 5510   2.501   1.989   3.910 -0.4815  0.2264 -0.5001
 1792SOL    HW1 5511   2.468   1.975   3.999  2.4667  0.5180  0.7727
 1792SOL    HW2 5512   2.522   1.901   3.879 -2.8096 -0.0230 -1.5550
 1793SOL     OW 5513   4.827   3.866   2.454 -0.4790  0.6693 -0.6971
 1793SOL    HW1 5514   4.747   3.837   2.498 -0.6735  1.0695 -0.7820
 1793SOL    HW2 5515   4.873   3.785   2.431 -0.8127  0.4409 -0.5590
 1794SOL     OW 5516   0.833   2.139   1.547  0.4815  0.4406  0.2138
 1794SOL    HW1 5517   0.909   2.086   1.524 -0.4500 -0.3455 -1.2398
 1794SOL    HW2 5518   0.818   2.194   1.470 -1.4070 -0.6502 -0.2594
 1795SOL     OW 5519   0.984   1.188   0.963  0.3950  0.2649  0.0353
 1795SOL    HW1 5520   0.922   1.222   0.899 -1.1152  0.0277  1.3307
 1795SOL    HW2 5521   0.951   1.217   1.048 -0.9801 -4.1223  1.2675
 1796SOL     OW 5522   2.647   2.602   0.009 -0.2407 -0.6436 -0.7523
 1796SOL    HW1 5523   2.691   2.678  -0.030  1.2238 -1.5651 -0.9705
 1796SOL    HW2 5524   2.563   2.636   0.039  1.5510  1.8819  2.0163
 1797SOL     OW 5525   3.670   2.213   1.730  0.4099  0.1550 -0.1031
 1797SOL    HW1 5526   3.646   2.147   1.665  1.4641 -1.3219  0.9646
 1797SOL    HW2 5527   3.586   2.238   1.771 -0.0857  0.0732 -1.0399
 1798SOL     OW 5528   1.738   0.994   3.661  0.6033 -0.6110 -0.1533
 1798SOL    HW1 5529   1.679   0.985   3.736  0.3257 -0.7009 -0.3805
 1798SOL    HW2 5530   1.821   1.023   3.699  0.0537  0.7494  0.0315
 1799SOL     OW 5531   2.703   4.423   4.152  0.3983 -0.0076 -0.9125
 1799SOL    HW1 5532   2.776   4.362   4.143  0.3602 -0.1736 -0.1839
 1799SOL    HW2 5533   2.630   4.368   4.182  0.0173  0.1886 -1.4579
 1800SOL     OW 5534   1.485   0.580   4.509 -0.3797 -0.1803 -0.0094
 1800SOL    HW1 5535   1.453   0.566   4.598  1.3098  0.1350  0.6822
 1800SOL    HW2 5536   1.571   0.622   4.520  0.1805 -0.7652 -1.7670
 1801SOL     OW 5537   1.991   2.723   0.252 -0.5981  0.1240  0.2975
 1801SOL    HW1 5538   2.078   2.747   0.219 -1.1883 -0.2781 -1.7413
 1801SOL    HW2 5539   1.964   2.799   0.303  0.2520  1.0196 -0.5106
 1802SOL     OW 5540   3.441   3.625   2.091  0.0399 -0.0015 -0.2526
 1802SOL    HW1 5541   3.484   3.562   2.148 -0.1855 -0.0225 -0.1017
 1802SOL    HW2 5542   3.445   3.587   2.004 -0.1214 -0.2363 -0.1571
 1803SOL     OW 5543   1.454   2.702   1.492 -0.0808 -0.1608  0.4137
 1803SOL    HW1 5544   1.453   2.796   1.510  0.2367 -0.5057  2.4879
 1803SOL    HW2 5545   1.467   2.661   1.577 -1.0135 -2.1359 -0.3219
 1804SOL     OW 5546   3.746   2.989   1.948  0.3855 -0.3447  0.0671
 1804SOL    HW1 5547   3.795   2.917   1.910  0.2805 -1.1823  1.4302
 1804SOL    HW2 5548   3.703   2.951   2.025 -0.3403  0.9753  0.3563
 1805SOL     OW 5549   2.066   3.782   2.450  0.1373 -0.0619  0.2807
 1805SOL    HW1 5550   2.011   3.743   2.518 -0.5490 -1.1807 -0.8850
 1805SOL    HW2 5551   2.113   3.709   2.411 -0.0361  0.4560 -0.9464
 1806SOL     OW 5552   3.607   1.943   0.676  0.0397 -0.4253 -0.2243
 1806SOL    HW1 5553   3.561   1.866   0.708 -0.0308 -0.5474 -0.6053
 1806SOL    HW2 5554   3.540   2.009   0.664  0.2651  0.0991  1.2523
 1807SOL     OW 5555   4.135   0.278   3.800 -0.3757 -0.4273 -0.5780
 1807SOL    HW1 5556   4.159   0.364   3.834  3.0151 -0.9669 -1.2980
 1807SOL    HW2 5557   4.132   0.221   3.876 -0.8867 -0.0406 -0.3030
 1808SOL     OW 5558   0.437   4.403   3.393 -0.4011  0.6440 -0.2643
 1808SOL    HW1 5559   0.366   4.464   3.411 -1.6848 -0.2369 -1.9740
 1808SOL    HW2 5560   0.473   4.432   3.309 -0.7207 -0.6227 -0.8709
 1809SOL     OW 5561   4.444   2.335   3.001 -0.6578 -0.1748 -0.2429
 1809SOL    HW1 5562   4.405   2.319   2.915 -2.0561 -0.3833  0.4106
 1809SOL    HW2 5563   4.371   2.329   3.063  0.1809  0.7353  0.8927
 1810SOL     OW 5564   2.963   4.973   4.660 -0.0155 -0.0836 -0.2443
 1810SOL    HW1 5565   2.869   4.964   4.673  0.3442 -0.7197  2.4858
 1810SOL    HW2 5566   2.993   4.885   4.638 -0.1588  0.3747 -2.5830
 1811SOL     OW 5567   2.958   4.616   0.218 -0.2298 -0.2325 -0.1424
 1811SOL    HW1 5568   2.900   4.692   0.212  0.1324  0.0087 -0.6741
 1811SOL    HW2 5569   3.046   4.654   0.227  0.0597 -0.5760 -1.4385
 1812SOL     OW 5570   3.966   2.151   0.623 -0.6633 -0.1232  0.5693
 1812SOL    HW1 5571   4.010   2.093   0.685  0.1447  0.0380  0.1578
 1812SOL    HW2 5572   3.873   2.133   0.635 -0.5086 -0.2765  1.6474
 1813SOL     OW 5573   4.916   1.749   3.217  0.2780  0.0335  0.1314
 1813SOL    HW1 5574   4.965   1.819   3.175 -0.9668  1.7434  1.3809
 1813SOL    HW2 5575   4.980   1.703   3.271  1.2878 -0.3744 -1.3516
 1814SOL     OW 5576   0.327   3.306   2.718 -0.3495 -0.0601  0.1848
 1814SOL    HW1 5577   0.317   3.247   2.644  0.1738 -0.3073  0.3077
 1814SOL    HW2 5578   0.247   3.294   2.769  0.2465 -1.5574  0.8290
 1815SOL     OW 5579   1.079   4.531   4.082 -0.6131 -0.3442 -0.2995
 1815SOL    HW1 5580   1.025   4.610   4.085  2.5080  2.1032 -1.8563
 1815SOL    HW2 5581   1.119   4.533   3.994  2.2078 -1.7141  0.8178
 1816SOL     OW 5582   0.132   2.449   4.841  0.5791  0.1260 -0.3103
 1816SOL    HW1 5583   0.174   2.498   4.770 -0.2396  2.3134  0.6106
 1816SOL    HW2 5584   0.066   2.395   4.797 -1.0282  2.6383 -1.2076
 1817SOL     OW 5585   0.580   0.243   2.355 -0.8265 -0.5436  0.8812
 1817SOL    HW1 5586   0.543   0.182   2.419 -2.2328 -1.5685 -0.7936
 1817SOL    HW2 5587   0.564   0.201   2.271  2.4110 -0.0139 -0.1150
 1818SOL     OW 5588   0.334   0.644   1.896 -0.0713 -0.1497 -0.3521
 1818SOL    HW1 5589   0.352   0.722   1.843 -1.2915  0.7651  0.5042
 1818SOL    HW2 5590   0.345   0.673   1.986 -0.4608 -0.9877 -0.0225
 1819SOL     OW 5591   4.501   0.882   3.318 -0.3013 -0.2691 -0.0613
 1819SOL    HW1 5592   4.490   0.977   3.328 -2.2036 -0.3782 -0.7052
 1819SOL    HW2 5593   4.440   0.845   3.381 -0.3786 -1.0587 -0.5927
 1820SOL     OW 5594   3.971   0.709   4.831 -0.4011  0.3470  0.1959
 1820SOL    HW1 5595   3.926   0.628   4.809 -3.2766  1.1829  2.4296
 1820SOL    HW2 5596   3.904   0.777   4.823  0.8009  1.9156  2.2761
 1821SOL     OW 5597   1.884   3.993   0.360 -0.2559 -0.1669 -0.3576
 1821SOL    HW1 5598   1.926   4.067   0.315  2.8382 -0.7595  1.3262
 1821SOL    HW2 5599   1.899   3.919   0.302 -2.2764  0.1822 -1.4454
 1822SOL     OW 5600   0.686   1.171   4.739 -0.1143 -0.3315  0.1110
 1822SOL    HW1 5601   0.701   1.240   4.804 -0.7513  0.9532 -1.0537
 1822SOL    HW2 5602   0.603   1.131   4.766 -2.1677  2.3904 -1.6282
 1823SOL     OW 5603   2.995   1.363   2.906  0.1620 -0.0013 -0.1969
 1823SOL    HW1 5604   2.958   1.437   2.858  0.6444  0.5522  0.2851
 1823SOL    HW2 5605   2.923   1.332   2.961  0.4376  1.1910  0.8789
 1824SOL     OW 5606   1.757   0.705   3.513 -0.1447  0.2546  0.1047
 1824SOL    HW1 5607   1.755   0.796   3.540  1.0343  0.7991 -1.4796
 1824SOL    HW2 5608   1.737   0.656   3.593 -0.7049  1.8724  1.0059
 1825SOL     OW 5609   1.365   1.091   2.965  0.4691  0.0036  0.0916
 1825SOL    HW1 5610   1.321   1.156   2.910 -0.1462 -1.1203 -0.7981
 1825SOL    HW2 5611   1.313   1.088   3.045 -1.3401 -1.4995 -1.0505
 1826SOL     OW 5612   2.007   0.238   4.867 -0.9882  0.8520 -0.2275
 1826SOL    HW1 5613   2.036   0.330   4.861  0.7951  0.5037  1.8634
 1826SOL    HW2 5614   1.997   0.211   4.775 -0.3609  2.7709 -0.9278
 1827SOL     OW 5615   3.676   1.102   4.782 -0.1708  0.2621 -0.1002
 1827SOL    HW1 5616   3.657   1.082   4.690  0.2931 -0.4491 -0.0568
 1827SOL    HW2 5617   3.641   1.190   4.796  1.2945  1.1087 -1.4386
 1828SOL     OW 5618   2.560   3.439   4.747  0.7878 -0.2779  0.1663
 1828SOL    HW1 5619   2.624   3.384   4.703  2.0271  2.5186 -1.8872
 1828SOL    HW2 5620   2.612   3.499   4.800 -0.4106 -0.2711  1.4042
 1829SOL     OW 5621   2.700   2.310   3.064  0.6247  0.1204 -0.3182
 1829SOL    HW1 5622   2.639   2.238   3.082  0.3080  0.6440  0.7538
 1829SOL    HW2 5623   2.782   2.284   3.107  0.2653  0.7593  0.7882
 1830SOL     OW 5624   2.917   0.160   1.469 -0.6587  0.1275 -0.2787
 1830SOL    HW1 5625   2.934   0.254   1.468 -0.9836  0.1927 -1.4077
 1830SOL    HW2 5626   2.842   0.150   1.528 -1.1316  0.6879 -0.7648
 1831SOL     OW 5627   2.378   0.131   4.615  0.3587 -0.1903 -0.4891
 1831SOL    HW1 5628   2.362   0.037   4.625 -1.0773  0.1108  0.3367
 1831SOL    HW2 5629   2.452   0.148   4.673 -2.0276 -0.1408  2.8170
 1832SOL     OW 5630   4.050   4.950   3.732 -0.7068 -0.6152  0.1333
 1832SOL    HW1 5631   3.975   4.948   3.672  0.0323  1.5158 -0.9758
 1832SOL    HW2 5632   4.099   4.871   3.711 -1.7005 -1.1296 -0.3736
 1833SOL     OW 5633   1.306   0.414   4.943  0.0516 -0.1390  0.2019
 1833SOL    HW1 5634   1.369   0.384   5.010  0.6884  1.5238  0.3869
 1833SOL    HW2 5635   1.242   0.465   4.992 -0.0668  0.2157 -0.3217
 1834SOL     OW 5636   4.002   2.522   1.713 -0.2509 -0.5895  0.3896
 1834SOL    HW1 5637   4.083   2.529   1.765  0.1815 -0.7248 -0.2594
 1834SOL    HW2 5638   4.032   2.517   1.623 -1.0914  3.6157 -0.3276
 1835SOL     OW 5639   2.521   1.676   4.902 -0.1678  0.1921  0.0015
 1835SOL    HW1 5640   2.540   1.744   4.836 -0.1433  0.0798 -0.1076
 1835SOL    HW2 5641   2.545   1.594   4.859 -0.8927  0.0450 -0.1370
 1836SOL     OW 5642   0.970   3.215   1.614  0.2061  0.3312 -0.3183
 1836SOL    HW1 5643   0.911   3.140   1.620  1.3777 -0.5770  0.3909
 1836SOL    HW2 5644   1.001   3.227   1.704  3.9027 -1.6031 -1.1504
 1837SOL     OW 5645   1.406   3.362   1.746 -0.1349 -0.2196 -0.0041
 1837SOL    HW1 5646   1.347   3.389   1.675 -2.4379 -1.0516  1.4892
 1837SOL    HW2 5647   1.465   3.436   1.757  0.0853  0.0839 -2.5069
 1838SOL     OW 5648   0.422   2.134   1.373 -0.5545 -0.4409  0.4771
 1838SOL    HW1 5649   0.470   2.216   1.364 -0.6882 -0.3546  0.5569
 1838SOL    HW2 5650   0.456   2.095   1.454 -0.6848 -0.3355  0.5830
 1839SOL     OW 5651   4.870   0.510   0.038  0.0336 -0.2345 -0.1816
 1839SOL    HW1 5652   4.839   0.535  -0.049  2.1864  0.1623 -0.9113
 1839SOL    HW2 5653   4.898   0.419   0.028 -1.3758 -0.7726  0.6051
 1840SOL     OW 5654   4.537   1.177   1.422  0.3366  0.3065  0.3643
 1840SOL    HW1 5655   4.599   1.213   1.486  1.2978 -0.7818  0.0914
 1840SOL    HW2 5656   4.451   1.189   1.462  0.7498  1.4808  0.9429
 1841SOL     OW 5657   2.165   1.531   3.527 -0.2030 -0.0097  0.2684
 1841SOL    HW1 5658   2.144   1.494   3.441 -2.0798 -0.6913  0.9781
 1841SOL    HW2 5659   2.105   1.488   3.587  0.3462  1.2435  1.7789
 1842SOL     OW 5660   3.216   3.129   4.502 -0.5749  0.1667  0.3120
 1842SOL    HW1 5661   3.137   3.141   4.449  0.0927  0.4017 -0.6385
 1842SOL    HW2 5662   3.260   3.214   4.501  0.8872 -0.5551 -1.1341
 1843SOL     OW 5663   0.190   0.688   0.538 -0.0309  0.4068  0.1278
 1843SOL    HW1 5664   0.247   0.612   0.528  1.5683  1.5605  0.1251
 1843SOL    HW2 5665   0.193   0.732   0.453 -0.1811  0.9940  0.4257
 1844SOL     OW 5666   4.003   0.742   1.750 -0.6241  0.1799  0.2470
 1844SOL    HW1 5667   4.091   0.779   1.747  0.3060 -1.8762  0.1128
 1844SOL    HW2 5668   3.967   0.758   1.662 -0.9331  2.1317  0.6765
 1845SOL     OW 5669   3.294   3.144   3.827  0.0874 -0.2914  0.3460
 1845SOL    HW1 5670   3.373   3.192   3.854  0.2510 -1.2273  1.6263
 1845SOL    HW2 5671   3.221   3.199   3.855  0.2725  0.4127 -0.5261
 1846SOL     OW 5672   1.765   2.919   0.285  0.3214 -0.6147 -0.0614
 1846SOL    HW1 5673   1.677   2.902   0.252 -0.6081  0.1319  1.8419
 1846SOL    HW2 5674   1.808   2.969   0.216 -1.2908  0.3677 -0.4079
 1847SOL     OW 5675   4.696   1.179   3.127 -0.1208 -0.6081  0.0123
 1847SOL    HW1 5676   4.752   1.104   3.105  0.6630 -0.4893  1.4316
 1847SOL    HW2 5677   4.736   1.252   3.081  0.2438 -0.7376  0.1113
 1848SOL     OW 5678   2.963   0.112   0.530  0.6672 -0.2021  0.2600
 1848SOL    HW1 5679   3.018   0.173   0.578  0.7080 -0.2678  0.2972
 1848SOL    HW2 5680   3.020   0.038   0.510  1.0165  0.4042 -1.0537
 1849SOL     OW 5681   3.776   1.967   2.802 -0.4015 -0.1663 -0.2473
 1849SOL    HW1 5682   3.764   2.058   2.775  0.6543 -0.3998 -1.6073
 1849SOL    HW2 5683   3.867   1.964   2.833 -0.4117 -0.7690 -0.2821
 1850SOL     OW 5684   3.991   3.063   2.955 -0.9495 -0.2438 -0.3127
 1850SOL    HW1 5685   4.014   3.086   3.045  0.2670 -0.4558 -0.5570
 1850SOL    HW2 5686   3.895   3.060   2.955 -0.9492 -0.9087  1.1361
 1851SOL     OW 5687   3.842   3.312   0.452  0.6871 -0.3863  0.0745
 1851SOL    HW1 5688   3.833   3.376   0.382 -0.5292 -0.3091  0.2818
 1851SOL    HW2 5689   3.902   3.352   0.515  0.6168  0.1741 -0.2158
 1852SOL     OW 5690   4.451   3.108   0.956 -0.3079  0.4325 -0.3014
 1852SOL    HW1 5691   4.481   3.022   0.987  3.3372  2.2961  2.1758
 1852SOL    HW2 5692   4.492   3.119   0.870 -0.0214  0.0394 -0.2151
 1853SOL     OW 5693   4.196   0.237   2.258 -0.1249  0.1908  0.0837
 1853SOL    HW1 5694   4.205   0.321   2.304  1.5997  0.6812 -1.0240
 1853SOL    HW2 5695   4.237   0.253   2.172  0.3041 -1.7926 -0.1298
 1854SOL     OW 5696   4.928   4.626   1.346 -0.5672  0.2479  0.3485
 1854SOL    HW1 5697   4.889   4.543   1.318 -0.7522 -0.5867  2.7859
 1854SOL    HW2 5698   4.966   4.663   1.267 -0.0365 -2.4051 -0.7406
 1855SOL     OW 5699   5.002   1.868   1.313  0.6091 -0.0984 -0.0781
 1855SOL    HW1 5700   4.942   1.890   1.384 -1.6024 -0.4817 -1.7102
 1855SOL    HW2 5701   4.983   1.776   1.293  2.3907 -0.4936 -0.0881
 1856SOL     OW 5702   4.217   1.873   1.842  0.0302 -0.2624  0.5656
 1856SOL    HW1 5703   4.156   1.927   1.792 -0.9131 -2.1390 -0.4176
 1856SOL    HW2 5704   4.264   1.823   1.776  2.1400  0.5873  1.3562
 1857SOL     OW 5705   4.942   5.010   1.643  0.5550  0.3513 -0.7488
 1857SOL    HW1 5706   5.012   4.978   1.699  0.0842 -3.7667 -2.2221
 1857SOL    HW2 5707   4.969   4.986   1.554 -1.4305  1.2670 -1.6714
 1858SOL     OW 5708   3.451   0.348   3.143  0.8107  0.5120 -0.1192
 1858SOL    HW1 5709   3.497   0.275   3.101 -0.2028  0.1719 -0.6795
 1858SOL    HW2 5710   3.508   0.424   3.129  1.7634 -0.1142  0.2630
 1859SOL     OW 5711   3.245   2.267   2.261 -0.0517  0.1170  0.7827
 1859SOL    HW1 5712   3.214   2.242   2.348  0.3567  0.2212  0.9613
 1859SOL    HW2 5713   3.170   2.310   2.220  0.2549  1.6028  1.7182
 1860SOL     OW 5714   0.920   2.848   2.299  0.0402  0.1346  0.1764
 1860SOL    HW1 5715   0.870   2.767   2.309 -1.0771  0.6487 -0.8891
 1860SOL    HW2 5716   0.916   2.889   2.385  1.2697 -1.2728  0.9458
 1861SOL     OW 5717   2.451   2.189   2.474  0.3382  0.5783  0.0002
 1861SOL    HW1 5718   2.468   2.193   2.379  0.4794 -0.3803 -0.0237
 1861SOL    HW2 5719   2.370   2.139   2.482  0.6348  0.1589  0.4144
 1862SOL     OW 5720   1.700   1.740   1.814  0.1981 -0.2273 -0.7439
 1862SOL    HW1 5721   1.744   1.668   1.858  1.9291 -0.0940 -2.1445
 1862SOL    HW2 5722   1.761   1.814   1.821 -1.0784  0.8236 -0.2408
 1863SOL     OW 5723   3.151   2.927   3.314 -0.0652  0.0129  0.0186
 1863SOL    HW1 5724   3.161   2.910   3.221 -0.7696 -0.3060 -0.0056
 1863SOL    HW2 5725   3.154   2.840   3.355 -1.0048  0.0434  0.1656
 1864SOL     OW 5726   2.372   4.438   0.236  0.0767 -0.0396 -0.2686
 1864SOL    HW1 5727   2.307   4.384   0.191  0.0536 -0.1627 -0.0888
 1864SOL    HW2 5728   2.365   4.524   0.193 -1.5831  0.5376  1.0260
 1865SOL     OW 5729   4.920   2.694   3.976 -0.5010 -0.4381  0.1744
 1865SOL    HW1 5730   4.865   2.772   3.982 -0.0520 -0.0832 -0.2445
 1865SOL    HW2 5731   4.888   2.637   4.045 -1.9469 -0.5942 -0.5910
 1866SOL     OW 5732   2.166   4.652   2.538  0.6902 -0.6885 -0.1902
 1866SOL    HW1 5733   2.215   4.705   2.476 -0.1767  0.3747  0.0110
 1866SOL    HW2 5734   2.222   4.648   2.616  1.0145 -0.5694 -0.4192
 1867SOL     OW 5735   4.807   0.645   3.218  0.2957 -0.2365 -0.1507
 1867SOL    HW1 5736   4.815   0.724   3.272  2.0873 -0.6744  0.2885
 1867SOL    HW2 5737   4.722   0.654   3.176  0.1740  1.6229  0.3823
 1868SOL     OW 5738   1.098   1.781   3.775 -0.4154 -0.5592  0.4139
 1868SOL    HW1 5739   1.094   1.798   3.681 -0.4252  4.3990  1.0292
 1868SOL    HW2 5740   1.185   1.745   3.790  0.2831  0.2847 -1.3391
 1869SOL     OW 5741   1.291   1.902   3.201 -0.0107  0.2986 -0.1722
 1869SOL    HW1 5742   1.338   1.818   3.203 -1.9053 -0.8230  1.6737
 1869SOL    HW2 5743   1.359   1.968   3.206  1.4876 -1.1453 -0.6071
 1870SOL     OW 5744   1.399   3.829   3.857  0.1051  0.2478  0.1464
 1870SOL    HW1 5745   1.421   3.823   3.950  0.2879  1.5030  0.1923
 1870SOL    HW2 5746   1.378   3.921   3.842  0.4881  0.1510 -1.1415
 1871SOL     OW 5747   0.768   3.874   3.573 -0.6229 -0.0374  0.6152
 1871SOL    HW1 5748   0.692   3.925   3.548  0.2624  1.3906  0.7094
 1871SOL    HW2 5749   0.843   3.930   3.552  0.3900 -1.2624  0.8159
 1872SOL     OW 5750   0.630   2.197   3.926 -0.7190  0.1057 -0.3364
 1872SOL    HW1 5751   0.608   2.274   3.874 -2.1990 -1.0946 -1.5435
 1872SOL    HW2 5752   0.697   2.152   3.875 -2.3970 -1.2401 -1.4463
 1873SOL     OW 5753   1.280   4.316   1.131  0.0124 -0.3181 -0.3128
 1873SOL    HW1 5754   1.250   4.370   1.204  0.3305 -0.7828  0.1647
 1873SOL    HW2 5755   1.221   4.338   1.059 -1.8802 -1.6576  0.7570
 1874SOL     OW 5756   0.025   3.925   2.072 -0.1808  0.4173  0.4066
 1874SOL    HW1 5757   0.073   3.880   2.141 -0.7718 -0.8823 -0.0058
 1874SOL    HW2 5758  -0.003   4.007   2.113 -3.4195 -1.6545  2.9743
 1875SOL     OW 5759   0.293   1.395   2.418 -0.3059  0.0967 -0.5690
 1875SOL    HW1 5760   0.261   1.427   2.334  0.6108  3.0920  0.1010
 1875SOL    HW2 5761   0.215   1.386   2.472 -0.6944  0.1646 -1.1143
 1876SOL     OW 5762   2.279   4.933   2.462  0.3994  0.0530 -0.6236
 1876SOL    HW1 5763   2.221   4.999   2.424  1.6797  2.3848  1.2147
 1876SOL    HW2 5764   2.298   4.966   2.550  2.0780 -2.1854 -0.0695
 1877SOL     OW 5765   1.069   4.864   4.220 -0.3085  0.1593 -0.0511
 1877SOL    HW1 5766   1.064   4.956   4.194  1.2832 -0.0557 -1.2677
 1877SOL    HW2 5767   0.981   4.831   4.208 -0.8671  1.4699  0.2279
 1878SOL     OW 5768   4.353   0.262   2.029  0.0473  0.3126  0.8115
 1878SOL    HW1 5769   4.361   0.357   2.039  1.7311  0.2506  0.3441
 1878SOL    HW2 5770   4.438   0.235   1.995 -2.0144 -0.6943 -4.4863
 1879SOL     OW 5771   4.526   4.241   2.158  0.1280 -0.8340 -0.7404
 1879SOL    HW1 5772   4.448   4.297   2.162 -1.7159 -3.2059 -1.1075
 1879SOL    HW2 5773   4.596   4.299   2.129 -0.8920  1.9510  1.8246
 1880SOL     OW 5774   3.572   0.725   3.079  0.0294  0.4329 -0.4168
 1880SOL    HW1 5775   3.551   0.814   3.049 -0.1866  0.4952 -0.0739
 1880SOL    HW2 5776   3.581   0.675   2.998 -0.9636  0.5072 -0.5840
 1881SOL     OW 5777   1.859   2.478   3.730  0.0774 -0.2131 -0.0559
 1881SOL    HW1 5778   1.800   2.533   3.678  0.1171 -0.1241 -0.0065
 1881SOL    HW2 5779   1.811   2.395   3.741  0.3989 -0.5175 -0.8982
 1882SOL     OW 5780   2.559   0.790   4.682 -0.4501 -0.1428  0.3752
 1882SOL    HW1 5781   2.553   0.709   4.630 -1.8759  0.8964 -1.1890
 1882SOL    HW2 5782   2.644   0.826   4.660 -0.8026 -0.0064 -0.8675
 1883SOL     OW 5783   0.008   0.103   0.332 -0.4819 -0.2108  0.6041
 1883SOL    HW1 5784   0.103   0.113   0.331 -0.5189  0.1760 -0.0559
 1883SOL    HW2 5785  -0.011   0.056   0.413  0.6692 -4.2975 -1.2512
 1884SOL     OW 5786   1.828   0.505   1.943  0.0210 -0.6790 -0.1346
 1884SOL    HW1 5787   1.736   0.514   1.919  0.2007 -1.5721 -1.2473
 1884SOL    HW2 5788   1.870   0.582   1.905 -0.3404  0.0519  0.8975
 1885SOL     OW 5789   3.532   4.266   2.103  0.0035 -0.1172  0.2332
 1885SOL    HW1 5790   3.453   4.320   2.104  0.5117  0.7071 -1.1570
 1885SOL    HW2 5791   3.602   4.326   2.128  0.3519 -0.5442  0.2950
 1886SOL     OW 5792   3.110   3.423   1.600  0.2320 -0.1117  0.0498
 1886SOL    HW1 5793   3.089   3.508   1.639  1.1049 -0.9442  2.5145
 1886SOL    HW2 5794   3.204   3.425   1.586  0.4551 -1.1074  1.3044
 1887SOL     OW 5795   3.292   0.513   1.433  0.2303 -0.1508  0.4099
 1887SOL    HW1 5796   3.294   0.479   1.344 -5.1430  1.2170 -0.5717
 1887SOL    HW2 5797   3.273   0.436   1.487 -1.1549 -0.3566 -0.3296
 1888SOL     OW 5798   0.618   4.746   2.221 -0.7500 -0.1582 -0.1262
 1888SOL    HW1 5799   0.542   4.790   2.258  0.6155  1.7912  0.5272
 1888SOL    HW2 5800   0.626   4.782   2.132  0.8349  1.6609  0.6823
 1889SOL     OW 5801   3.095   2.401   3.766 -0.2252 -0.0958  0.1003
 1889SOL    HW1 5802   3.183   2.413   3.804 -0.5820 -0.4918  1.0947
 1889SOL    HW2 5803   3.037   2.446   3.827 -0.5518  1.8526 -1.5806
 1890SOL     OW 5804   1.683   4.273   1.634  0.2843  0.5267  0.1812
 1890SOL    HW1 5805   1.606   4.329   1.630 -0.6005 -0.5064  1.7076
 1890SOL    HW2 5806   1.665   4.211   1.705  2.3475 -0.0219  0.3083
 1891SOL     OW 5807   4.885   4.864   3.120 -0.4205  0.4109 -0.6306
 1891SOL    HW1 5808   4.795   4.882   3.092  0.4200  2.5998 -2.1919
 1891SOL    HW2 5809   4.939   4.889   3.046  1.6129  1.2416  1.0259
 1892SOL     OW 5810   2.857   4.249   3.927  0.3299  0.0437  0.1186
 1892SOL    HW1 5811   2.895   4.331   3.895 -0.8742  1.2785  1.6324
 1892SOL    HW2 5812   2.930   4.203   3.968  1.0220  0.3603 -0.7411
 1893SOL     OW 5813   0.165   3.161   1.190  1.1122 -0.5289  0.4782
 1893SOL    HW1 5814   0.170   3.147   1.096  1.3576  3.0936 -0.2008
 1893SOL    HW2 5815   0.253   3.140   1.222  0.9439 -2.0608 -0.0051
 1894SOL     OW 5816   3.592   2.689   4.120 -0.3252 -0.4647  0.0765
 1894SOL    HW1 5817   3.650   2.614   4.107 -0.0076 -0.3585  0.8432
 1894SOL    HW2 5818   3.640   2.747   4.179  0.5639  1.5742 -2.4647
 1895SOL     OW 5819   2.268   0.098   0.802  0.6498 -0.0884 -0.8150
 1895SOL    HW1 5820   2.273   0.032   0.871 -0.1483 -1.6956 -2.2067
 1895SOL    HW2 5821   2.351   0.088   0.754  0.0898 -0.8609 -1.6582
 1896SOL     OW 5822   0.510   0.531   4.657  0.0243 -0.0664  0.7662
 1896SOL    HW1 5823   0.582   0.483   4.698  1.9992  1.1365 -1.1119
 1896SOL    HW2 5824   0.552   0.589   4.595 -2.4929  1.9792  0.8192
 1897SOL     OW 5825   4.480   0.258   1.311 -0.2808 -0.5557  0.5394
 1897SOL    HW1 5826   4.567   0.255   1.351 -0.5875  1.0998  1.4199
 1897SOL    HW2 5827   4.464   0.351   1.295 -1.3623 -0.9409 -0.8470
 1898SOL     OW 5828   2.966   4.563   2.615  0.1653 -0.4687 -0.0677
 1898SOL    HW1 5829   2.991   4.638   2.669 -0.1428  0.5705 -1.3395
 1898SOL    HW2 5830   2.876   4.544   2.641  0.2417 -0.4008  0.2538
 1899SOL     OW 5831   0.660   3.034   3.492  0.7956 -0.6748 -0.2706
 1899SOL    HW1 5832   0.720   2.988   3.551  1.6929  1.2176  0.3952
 1899SOL    HW2 5833   0.590   3.066   3.549  0.3092 -1.0100 -0.6770
 1900SOL     OW 5834   1.527   0.421   2.633 -0.0703 -0.0795 -0.1015
 1900SOL    HW1 5835   1.609   0.439   2.679 -0.1787  1.1869 -0.3762
 1900SOL    HW2 5836   1.515   0.496   2.575 -1.1415 -0.5205 -0.4697
 1901SOL     OW 5837   0.227   2.078   3.026  0.4299 -0.1194  0.6992
 1901SOL    HW1 5838   0.214   2.166   2.991  0.7772  0.5863  2.2790
 1901SOL    HW2 5839   0.176   2.022   2.967 -2.3201  1.4773  1.3628
 1902SOL     OW 5840   0.989   0.811   1.324  0.3079  0.7338  0.3564
 1902SOL    HW1 5841   0.958   0.823   1.235 -1.1428  0.9861  0.8644
 1902SOL    HW2 5842   1.069   0.759   1.315 -0.0253  0.4242 -1.0484
 1903SOL     OW 5843   1.096   3.137   3.732 -0.0790 -0.1012 -0.2078
 1903SOL    HW1 5844   1.073   3.199   3.662 -1.4023  0.5704  0.7556
 1903SOL    HW2 5845   1.165   3.181   3.781 -1.8164  1.2635  1.1847
 1904SOL     OW 5846   3.687   4.480   4.596  0.3011  0.0636 -0.1607
 1904SOL    HW1 5847   3.668   4.545   4.528 -2.0178 -0.4498 -0.0755
 1904SOL    HW2 5848   3.733   4.410   4.550  1.1391  0.9046 -0.6326
 1905SOL     OW 5849   0.433   2.271   3.314  0.0870  0.6098  0.6389
 1905SOL    HW1 5850   0.432   2.229   3.228 -1.6617  0.2423  0.7893
 1905SOL    HW2 5851   0.477   2.355   3.299  1.1514 -0.0847 -0.2635
 1906SOL     OW 5852   3.439   4.424   5.015  0.2132 -0.0563 -0.1569
 1906SOL    HW1 5853   3.491   4.461   5.086  1.2153  1.3130 -1.5338
 1906SOL    HW2 5854   3.504   4.384   4.956 -0.6697 -2.0088  0.1182
 1907SOL     OW 5855   2.905   2.061   3.212  0.3974  0.0936  0.5339
 1907SOL    HW1 5856   2.958   2.026   3.283 -0.3643  1.0442  1.6008
 1907SOL    HW2 5857   2.831   2.002   3.205  1.3401 -1.0064 -0.6896
 1908SOL     OW 5858   3.003   2.509   3.164 -0.3233 -0.0275  0.0572
 1908SOL    HW1 5859   2.921   2.553   3.144 -0.1073  1.3002  1.8329
 1908SOL    HW2 5860   3.069   2.556   3.115 -0.3194  0.5139  0.5741
 1909SOL     OW 5861   2.657   2.637   4.698  0.6820  0.6192 -0.5670
 1909SOL    HW1 5862   2.565   2.613   4.688  0.7213  0.8666 -1.6144
 1909SOL    HW2 5863   2.655   2.713   4.757  0.3424 -0.2177  0.5256
 1910SOL     OW 5864   3.814   3.505   2.056 -0.5609  0.6184  0.0284
 1910SOL    HW1 5865   3.908   3.498   2.041 -0.7396 -0.3113 -0.7380
 1910SOL    HW2 5866   3.798   3.599   2.063  0.9026  0.7528  3.5129
 1911SOL     OW 5867   0.577   4.283   1.320  0.1220 -0.2081 -0.8893
 1911SOL    HW1 5868   0.567   4.188   1.320  0.0352 -0.2013 -0.3019
 1911SOL    HW2 5869   0.564   4.309   1.411  0.5245  0.3288 -0.9790
 1912SOL     OW 5870   3.231   2.338   1.770  0.2388 -0.1594 -0.1135
 1912SOL    HW1 5871   3.235   2.244   1.748 -1.6778 -0.0611 -1.0301
 1912SOL    HW2 5872   3.317   2.371   1.744  0.7939 -1.5608 -0.2036
 1913SOL     OW 5873   1.726   2.281   3.845 -0.2911 -0.3937 -0.4362
 1913SOL    HW1 5874   1.631   2.288   3.856 -0.4934 -2.7547 -0.1796
 1913SOL    HW2 5875   1.743   2.187   3.845  2.0571 -0.0216 -0.5668
 1914SOL     OW 5876   3.131   4.609   2.921  0.9080  0.1420 -0.3897
 1914SOL    HW1 5877   3.051   4.635   2.968 -0.0523  0.5835 -2.1885
 1914SOL    HW2 5878   3.144   4.517   2.944  0.4930  0.3487  0.7417
 1915SOL     OW 5879   0.230   1.656   1.525  0.0675 -0.3335  0.0753
 1915SOL    HW1 5880   0.234   1.597   1.450  0.2405  0.7302 -0.7716
 1915SOL    HW2 5881   0.321   1.668   1.552 -0.1137 -2.5340  1.9629
 1916SOL     OW 5882   4.596   2.778   4.067 -0.3726  0.6230 -0.3082
 1916SOL    HW1 5883   4.622   2.846   4.130 -1.2392 -0.4240  1.2583
 1916SOL    HW2 5884   4.526   2.731   4.111 -0.1778 -0.9403 -1.5920
 1917SOL     OW 5885   0.517   4.242   0.732 -0.1755  0.9539 -0.2356
 1917SOL    HW1 5886   0.499   4.303   0.661 -0.3860  1.2183  0.0378
 1917SOL    HW2 5887   0.459   4.271   0.803  0.1776  0.8222  0.1123
 1918SOL     OW 5888   4.560   1.680   4.413  0.2973 -0.1930 -0.2850
 1918SOL    HW1 5889   4.582   1.712   4.500 -1.1083  1.8981 -0.6291
 1918SOL    HW2 5890   4.626   1.613   4.395  1.5544  0.4073  1.7370
 1919SOL     OW 5891   0.103   3.643   4.964  0.8367 -0.4542 -0.3127
 1919SOL    HW1 5892   0.072   3.723   5.007 -0.0620 -0.4584 -0.9240
 1919SOL    HW2 5893   0.146   3.593   5.034  2.5717  1.1204 -0.1910
 1920SOL     OW 5894   3.682   4.731   3.499 -0.7541  0.1661  0.3128
 1920SOL    HW1 5895   3.730   4.783   3.563  1.0076 -0.9325 -0.0433
 1920SOL    HW2 5896   3.707   4.768   3.414  0.3979 -1.0738  0.0632
 1921SOL     OW 5897   2.213   2.004   1.611  0.0329  0.2133 -0.5397
 1921SOL    HW1 5898   2.209   2.093   1.578  0.9921  0.4923  0.0488
 1921SOL    HW2 5899   2.139   1.960   1.570 -0.6525  1.3600 -0.5739
 1922SOL     OW 5900   2.076   1.647   1.233  0.5759 -0.4613  0.1582
 1922SOL    HW1 5901   2.166   1.676   1.218  0.7489 -1.0431  0.0498
 1922SOL    HW2 5902   2.032   1.662   1.150  0.6291 -0.3756  0.1453
 1923SOL     OW 5903   4.451   3.044   2.448 -0.0321 -0.5944  0.5028
 1923SOL    HW1 5904   4.368   3.014   2.412 -0.1167 -2.1046  1.8455
 1923SOL    HW2 5905   4.434   3.134   2.476  0.1634  0.9024 -3.4582
 1924SOL     OW 5906   1.381   2.622   4.581 -0.7027  0.2653  0.3091
 1924SOL    HW1 5907   1.447   2.559   4.552 -1.6935 -1.3416  1.3700
 1924SOL    HW2 5908   1.394   2.627   4.676  0.0813  2.5706  0.1247
 1925SOL     OW 5909   2.369   1.282   4.474  0.0984  0.0904 -0.1893
 1925SOL    HW1 5910   2.290   1.267   4.526  1.3065  1.3277  2.1114
 1925SOL    HW2 5911   2.343   1.347   4.409 -1.2057 -0.8419 -0.6478
 1926SOL     OW 5912   3.066   0.115   0.819 -0.2844 -0.3861  0.6299
 1926SOL    HW1 5913   3.073   0.149   0.908  0.0943 -1.2966  0.9571
 1926SOL    HW2 5914   3.103   0.184   0.764  1.0331 -0.5081  1.3333
 1927SOL     OW 5915   2.870   3.508   0.113  0.2907  0.1848 -0.2874
 1927SOL    HW1 5916   2.941   3.572   0.107  1.3663 -1.0204 -0.8680
 1927SOL    HW2 5917   2.792   3.557   0.088  1.1621  1.1457 -1.2264
 1928SOL     OW 5918   0.556   4.838   1.012  0.2256 -0.1746 -0.1400
 1928SOL    HW1 5919   0.496   4.765   1.027 -0.9182  0.9058  0.6910
 1928SOL    HW2 5920   0.570   4.876   1.099  2.9380 -0.9846 -0.1350
 1929SOL     OW 5921   0.205   2.103   1.053 -0.1099 -0.3844 -0.4655
 1929SOL    HW1 5922   0.118   2.132   1.081  0.6506 -0.9786  2.9494
 1929SOL    HW2 5923   0.228   2.162   0.982 -2.4332  1.1689 -0.0483
 1930SOL     OW 5924   4.686   4.850   1.749 -0.4877 -0.2329 -0.3531
 1930SOL    HW1 5925   4.758   4.909   1.726 -0.3013 -0.3454 -0.0543
 1930SOL    HW2 5926   4.695   4.777   1.688  0.4996 -0.9272  0.5899
 1931SOL     OW 5927   2.008   4.535   4.678  0.0101 -0.1812  0.0030
 1931SOL    HW1 5928   1.951   4.540   4.755  1.1617  0.7264  0.8442
 1931SOL    HW2 5929   1.951   4.557   4.604 -1.1655 -1.2882  0.5512
 1932SOL     OW 5930   3.675   2.233   3.406  0.5356 -0.0558 -0.2726
 1932SOL    HW1 5931   3.682   2.268   3.317 -0.2167 -0.6913 -0.5896
 1932SOL    HW2 5932   3.583   2.210   3.416  0.8522 -1.1761  0.2155
 1933SOL     OW 5933   4.280   1.996   2.774 -0.3859 -0.0640  0.8637
 1933SOL    HW1 5934   4.305   1.977   2.684 -0.9876  1.2109  0.4003
 1933SOL    HW2 5935   4.347   1.952   2.827 -0.2951 -1.2245 -0.1733
 1934SOL     OW 5936   3.549   4.828   1.400 -0.1737 -0.2943  1.2165
 1934SOL    HW1 5937   3.602   4.907   1.388 -0.9659  0.0817 -0.0567
 1934SOL    HW2 5938   3.509   4.839   1.486 -1.8794  1.7450  0.2747
 1935SOL     OW 5939   0.114   1.389   0.037  0.5916 -0.0219 -0.4931
 1935SOL    HW1 5940   0.159   1.455  -0.015  2.4545  1.6775  2.9572
 1935SOL    HW2 5941   0.174   1.370   0.109 -2.1861 -1.3300  1.6607
 1936SOL     OW 5942   0.607   2.327   1.418  0.1793  0.2058  0.0455
 1936SOL    HW1 5943   0.617   2.378   1.498  3.4257 -0.5988  0.3011
 1936SOL    HW2 5944   0.685   2.348   1.366 -0.8865 -0.7380 -2.0688
 1937SOL     OW 5945   1.317   1.723   4.439 -0.0929  0.4247 -0.0658
 1937SOL    HW1 5946   1.238   1.740   4.388 -0.3858  0.5074  0.4076
 1937SOL    HW2 5947   1.354   1.644   4.400 -1.6461 -0.9601  1.1342
 1938SOL     OW 5948   3.339   0.669   1.686 -0.1050  0.0855 -0.4509
 1938SOL    HW1 5949   3.270   0.703   1.630 -0.3151  1.2642  0.4850
 1938SOL    HW2 5950   3.416   0.665   1.629 -0.8219 -0.8233 -1.3821
 1939SOL     OW 5951   4.072   3.540   2.363 -0.2479 -0.4314  0.5843
 1939SOL    HW1 5952   3.992   3.503   2.327  0.3121 -1.3179  0.2201
 1939SOL    HW2 5953   4.140   3.517   2.299 -0.0595  2.3371 -0.3489
 1940SOL     OW 5954   4.342   1.450   0.370  0.3071 -0.1207 -0.3041
 1940SOL    HW1 5955   4.306   1.497   0.296 -3.2775  0.2957  1.5185
 1940SOL    HW2 5956   4.348   1.515   0.440  1.9056 -0.9044  0.3578
 1941SOL     OW 5957   4.660   4.628   4.217 -0.4945  0.2276  0.6333
 1941SOL    HW1 5958   4.641   4.537   4.238  1.1227  0.4341  3.4169
 1941SOL    HW2 5959   4.574   4.670   4.214 -1.2436 -1.2740 -0.4008
 1942SOL     OW 5960   0.971   3.282   0.191 -1.0993 -0.7475  0.2963
 1942SOL    HW1 5961   0.932   3.232   0.262 -1.9283 -0.4731  0.0465
 1942SOL    HW2 5962   0.911   3.269   0.117 -1.5911  0.9567  0.3544
 1943SOL     OW 5963   2.170   0.294   4.621 -0.3713  0.0766  0.7448
 1943SOL    HW1 5964   2.215   0.376   4.642 -0.5521  0.5735 -0.6953
 1943SOL    HW2 5965   2.241   0.230   4.611 -0.0459  0.5565 -0.1976
 1944SOL     OW 5966   4.531   2.052   2.303 -0.1207  0.0788  0.2878
 1944SOL    HW1 5967   4.578   1.969   2.291  0.1327  0.1670  0.6564
 1944SOL    HW2 5968   4.532   2.067   2.398  0.3431  0.7987  0.1738
 1945SOL     OW 5969   3.962   4.739   1.127  0.1724  0.3877 -0.0618
 1945SOL    HW1 5970   3.942   4.646   1.139  1.7445  0.3578  3.8631
 1945SOL    HW2 5971   3.883   4.784   1.158  0.3285  0.3273  0.4341
 1946SOL     OW 5972   2.045   2.982   1.719  0.4196  1.3419 -0.5074
 1946SOL    HW1 5973   2.069   2.978   1.626  0.7529  1.1816 -0.4166
 1946SOL    HW2 5974   2.075   3.068   1.748  0.2252  1.4325 -0.5698
 1947SOL     OW 5975   4.063   3.017   1.035  0.7328  0.1272 -0.3221
 1947SOL    HW1 5976   4.057   2.971   0.951  0.0824  0.3198 -0.3853
 1947SOL    HW2 5977   4.046   2.950   1.100 -1.5474  0.4951 -0.4638
 1948SOL     OW 5978   1.229   0.230   4.762 -0.0606  0.1978 -0.4826
 1948SOL    HW1 5979   1.252   0.285   4.837 -0.7228  0.0956 -0.2016
 1948SOL    HW2 5980   1.295   0.252   4.696  1.1798 -0.4828  0.4842
 1949SOL     OW 5981   2.833   4.332   2.386  0.1706  0.7120  0.0974
 1949SOL    HW1 5982   2.912   4.386   2.386  1.0890 -0.5724  0.5666
 1949SOL    HW2 5983   2.865   4.244   2.407 -1.2056 -0.1084 -1.1050
 1950SOL     OW 5984   0.111   1.334   3.626  0.3328  0.1590 -0.8489
 1950SOL    HW1 5985   0.027   1.366   3.660 -0.3957 -1.0240 -1.4561
 1950SOL    HW2 5986   0.126   1.252   3.673  1.3385  0.5252 -0.4995
 1951SOL     OW 5987   1.380   3.114   2.839 -0.3079 -0.9419 -0.0625
 1951SOL    HW1 5988   1.445   3.175   2.804 -0.9202  0.1927  0.7548
 1951SOL    HW2 5989   1.302   3.128   2.785  0.1121 -2.3823 -1.1156
 1952SOL     OW 5990   2.368   3.560   2.181 -0.1889 -0.3750  0.1498
 1952SOL    HW1 5991   2.325   3.564   2.266 -1.4050 -1.5235 -0.3628
 1952SOL    HW2 5992   2.454   3.599   2.195 -0.6959  0.2635  1.6792
 1953SOL     OW 5993   1.800   3.385   0.652  0.0366 -0.9756 -0.0117
 1953SOL    HW1 5994   1.859   3.382   0.727  0.2032 -1.0488 -0.1452
 1953SOL    HW2 5995   1.717   3.352   0.686 -0.1533 -0.1116  0.3797
 1954SOL     OW 5996   2.907   1.974   0.147  0.4964  0.1933  0.0731
 1954SOL    HW1 5997   2.904   2.068   0.164  1.0723  0.2180  0.0764
 1954SOL    HW2 5998   2.906   1.933   0.234 -0.4648  0.1616  0.0580
 1955SOL     OW 5999   1.969   3.159   4.546 -0.7178 -0.3093  0.2371
 1955SOL    HW1 6000   2.058   3.127   4.531 -0.2245  1.9481 -2.4458
 1955SOL    HW2 6001   1.980   3.248   4.578 -2.0646 -0.8353  2.3499
 1956SOL     OW 6002   3.039   3.761   2.114  0.3713 -0.0573  0.1906
 1956SOL    HW1 6003   3.128   3.769   2.146  1.0395  0.1827 -1.6050
 1956SOL    HW2 6004   3.034   3.671   2.080  0.6478  0.5996 -1.6654
 1957SOL     OW 6005   1.128   0.323   2.385 -0.0527 -0.2654  0.1685
 1957SOL    HW1 6006   1.076   0.244   2.401  1.2119 -1.0859  0.3801
 1957SOL    HW2 6007   1.215   0.301   2.418  0.1335  1.5101  0.9476
 1958SOL     OW 6008   1.540   2.582   1.752  0.3310 -0.1725 -0.1814
 1958SOL    HW1 6009   1.532   2.626   1.837 -0.0459 -3.2600  1.5049
 1958SOL    HW2 6010   1.611   2.630   1.707 -0.1567  2.1838  1.3733
 1959SOL     OW 6011   1.826   1.925   2.528 -0.4361 -0.3398 -0.3699
 1959SOL    HW1 6012   1.789   1.929   2.616 -0.1414  0.1528 -0.2687
 1959SOL    HW2 6013   1.754   1.949   2.471 -0.0470  1.6450 -0.1124
 1960SOL     OW 6014   2.149   0.665   1.059  0.4781 -0.2273  0.1051
 1960SOL    HW1 6015   2.077   0.606   1.036  0.3271  0.9613 -2.8153
 1960SOL    HW2 6016   2.223   0.607   1.074 -0.7936 -1.4152  2.2792
 1961SOL     OW 6017   2.152   2.975   4.962 -0.1736 -0.8048  0.0874
 1961SOL    HW1 6018   2.104   2.900   4.928 -1.3237  0.4045 -1.1401
 1961SOL    HW2 6019   2.210   3.001   4.890  1.3799 -1.4447  1.0754
 1962SOL     OW 6020   2.608   1.819   3.532 -0.0192  0.6648 -0.3792
 1962SOL    HW1 6021   2.545   1.830   3.462 -0.0058  2.2394 -0.1651
 1962SOL    HW2 6022   2.558   1.781   3.604 -0.5004  1.0371 -0.5199
 1963SOL     OW 6023   2.014   1.789   3.103 -0.3077  0.1735 -0.1224
 1963SOL    HW1 6024   2.010   1.748   3.017  1.8501 -0.9823  0.2425
 1963SOL    HW2 6025   1.942   1.749   3.153 -0.8410 -0.0219 -1.0314
 1964SOL     OW 6026   0.849   0.387   3.585  0.1583 -0.1371 -0.2801
 1964SOL    HW1 6027   0.755   0.383   3.602 -0.0519  5.1693  1.6153
 1964SOL    HW2 6028   0.888   0.401   3.671  2.6901 -1.4327 -1.1314
 1965SOL     OW 6029   1.038   1.186   2.226  0.2219  0.2374  0.1061
 1965SOL    HW1 6030   0.949   1.202   2.197  0.6173 -1.0520 -2.0390
 1965SOL    HW2 6031   1.058   1.097   2.196  1.8931  0.1217  1.3981
 1966SOL     OW 6032   3.807   4.765   4.918  0.5488 -0.3318 -0.0056
 1966SOL    HW1 6033   3.723   4.721   4.933  0.4040  0.2128  0.8455
 1966SOL    HW2 6034   3.868   4.694   4.896 -0.0970 -0.7474 -0.4859
 1967SOL     OW 6035   1.588   3.680   4.375 -0.0241 -0.1370  0.3136
 1967SOL    HW1 6036   1.554   3.658   4.289 -0.6464 -0.9996  0.7616
 1967SOL    HW2 6037   1.570   3.773   4.385 -1.5996 -0.4042  0.2201
 1968SOL     OW 6038   0.821   0.633   1.845  0.1833 -0.0130 -0.9037
 1968SOL    HW1 6039   0.756   0.586   1.897  3.1587 -2.5802  0.9101
 1968SOL    HW2 6040   0.843   0.573   1.774  2.8324 -0.8825  0.4785
 1969SOL     OW 6041   3.547   3.703   0.850  0.5433  0.0746 -0.9292
 1969SOL    HW1 6042   3.453   3.697   0.840  0.4582  0.1910 -0.2603
 1969SOL    HW2 6043   3.576   3.755   0.775  0.1412 -0.3691 -1.3974
 1970SOL     OW 6044   1.205   0.418   4.402 -0.1637  0.2360 -0.4596
 1970SOL    HW1 6045   1.198   0.338   4.454 -0.5055  0.0599 -0.7757
 1970SOL    HW2 6046   1.137   0.476   4.438 -1.6353 -0.5484 -1.8766
 1971SOL     OW 6047   3.872   0.193   2.072  0.2248  0.1314  0.2593
 1971SOL    HW1 6048   3.928   0.250   2.020  0.4290  0.1886  0.5376
 1971SOL    HW2 6049   3.823   0.141   2.008 -0.4206  1.0486 -0.0085
 1972SOL     OW 6050   1.030   1.712   0.611  0.6314  0.2703 -0.5604
 1972SOL    HW1 6051   0.989   1.706   0.524 -1.4090  0.9328  0.2820
 1972SOL    HW2 6052   1.074   1.797   0.610 -0.8534  1.0762 -0.4073
 1973SOL     OW 6053   0.067   0.462   2.328  0.4582 -0.0232  0.0351
 1973SOL    HW1 6054   0.041   0.377   2.362 -0.5761 -0.2671 -1.2998
 1973SOL    HW2 6055   0.163   0.461   2.332  0.4557 -1.2057  0.1244
 1974SOL     OW 6056   1.702   3.277   0.992  0.1038 -0.2480 -0.7938
 1974SOL    HW1 6057   1.650   3.335   1.048 -1.8768 -2.3674 -0.2835
 1974SOL    HW2 6058   1.660   3.281   0.907  1.7371  1.1997 -1.6083
 1975SOL     OW 6059   2.828   2.910   0.627 -0.2268 -0.1668 -0.4278
 1975SOL    HW1 6060   2.855   2.981   0.685  0.1712  1.0505 -2.0318
 1975SOL    HW2 6061   2.737   2.930   0.605 -0.2333 -0.3572 -0.5833
 1976SOL     OW 6062   4.304   1.876   2.105  0.0763 -0.2155  0.0695
 1976SOL    HW1 6063   4.389   1.882   2.061 -0.6298 -0.6192 -1.4309
 1976SOL    HW2 6064   4.242   1.860   2.034 -1.3196  0.5257  1.0817
 1977SOL     OW 6065   3.818   2.220   0.997 -0.3971  0.1660  0.0465
 1977SOL    HW1 6066   3.797   2.278   0.924 -0.4494  0.7766  0.5415
 1977SOL    HW2 6067   3.769   2.140   0.979  0.9340 -0.3445 -1.4793
 1978SOL     OW 6068   0.816   4.549   4.440  0.3155  0.3761 -0.3632
 1978SOL    HW1 6069   0.898   4.502   4.424 -0.1512 -0.3722 -0.6282
 1978SOL    HW2 6070   0.749   4.481   4.438 -0.4806  1.1575 -1.5542
 1979SOL     OW 6071   0.311   0.674   3.748  0.2952  0.6320  0.2225
 1979SOL    HW1 6072   0.273   0.589   3.723 -0.6556  1.3161 -0.7673
 1979SOL    HW2 6073   0.405   0.658   3.752  0.0458 -0.8256  1.5177
 1980SOL     OW 6074   3.304   1.190   4.449 -0.2668  0.5142  0.4016
 1980SOL    HW1 6075   3.316   1.106   4.405 -0.5118 -0.5346  2.2295
 1980SOL    HW2 6076   3.209   1.198   4.460 -0.3353  1.5605 -0.6562
 1981SOL     OW 6077   4.075   2.922   4.511 -0.0816  0.5665 -0.3569
 1981SOL    HW1 6078   4.144   2.857   4.503  0.4070  1.0787 -0.4159
 1981SOL    HW2 6079   3.995   2.872   4.529  0.0297 -0.1307 -1.7405
 1982SOL     OW 6080   1.803   1.192   4.285  0.0644 -0.2145  0.4463
 1982SOL    HW1 6081   1.794   1.137   4.363  1.3220 -0.7469  0.2358
 1982SOL    HW2 6082   1.894   1.223   4.288 -0.4739  1.4986  0.3190
 1983SOL     OW 6083   1.615   2.817   3.038  0.0459 -0.2071 -0.2805
 1983SOL    HW1 6084   1.590   2.898   3.083 -1.3488 -1.2278  0.8666
 1983SOL    HW2 6085   1.698   2.792   3.077  0.1919  0.3529 -0.2243
 1984SOL     OW 6086   2.047   4.676   4.283 -0.0414 -0.7444 -0.4310
 1984SOL    HW1 6087   1.967   4.644   4.327  0.1640  1.2545  1.5654
 1984SOL    HW2 6088   2.015   4.719   4.204 -0.8317 -0.8949 -0.2080
 1985SOL     OW 6089   3.710   0.218   2.353 -0.0538 -0.4411  0.7728
 1985SOL    HW1 6090   3.736   0.131   2.383 -1.1925 -0.9187  0.4390
 1985SOL    HW2 6091   3.619   0.227   2.381  0.0712  0.6884  0.8765
 1986SOL     OW 6092   0.057   2.336   1.302 -0.4625 -0.4399 -0.0155
 1986SOL    HW1 6093   0.095   2.264   1.353 -0.1856  0.7152  1.4743
 1986SOL    HW2 6094  -0.037   2.329   1.316 -0.4769 -0.8232 -0.3005
 1987SOL     OW 6095   2.158   0.762   2.428 -0.1850 -0.7377  0.4889
 1987SOL    HW1 6096   2.156   0.842   2.481  1.4853 -0.1658 -0.2361
 1987SOL    HW2 6097   2.195   0.695   2.485 -2.1023 -1.1792  1.2775
 1988SOL     OW 6098   1.535   0.571   2.420 -0.2493 -0.1167  0.6061
 1988SOL    HW1 6099   1.504   0.494   2.373 -0.6296  0.5100 -0.1970
 1988SOL    HW2 6100   1.520   0.644   2.359  1.7254  0.3753  0.6414
 1989SOL     OW 6101   1.058   3.562   3.695 -0.3410 -0.3937 -0.5033
 1989SOL    HW1 6102   1.029   3.520   3.614  1.0241 -0.7929 -0.8140
 1989SOL    HW2 6103   1.152   3.544   3.699  0.1963  2.0351 -0.2944
 1990SOL     OW 6104   2.625   2.074   0.502 -0.0428 -0.3576 -0.3397
 1990SOL    HW1 6105   2.612   2.105   0.412  2.0437 -2.3152 -1.4297
 1990SOL    HW2 6106   2.567   1.999   0.511  0.6117 -0.8918 -0.4976
 1991SOL     OW 6107   3.537   4.582   1.234 -0.4838 -0.7188  0.0106
 1991SOL    HW1 6108   3.631   4.575   1.248 -0.2831 -0.8723 -1.3135
 1991SOL    HW2 6109   3.518   4.675   1.243 -0.4470 -0.8490  1.6281
 1992SOL     OW 6110   0.223   1.767   3.098 -0.1673 -0.0074 -0.0911
 1992SOL    HW1 6111   0.177   1.712   3.162 -1.7842  1.1256 -0.2350
 1992SOL    HW2 6112   0.221   1.855   3.136  3.3080 -0.0839  0.6405
 1993SOL     OW 6113   3.776   4.718   3.083 -0.6588 -0.4714 -1.1019
 1993SOL    HW1 6114   3.802   4.633   3.119  0.2438  0.0716 -0.4442
 1993SOL    HW2 6115   3.856   4.756   3.048 -0.7961  0.6427 -0.2705
 1994SOL     OW 6116   0.780   1.705   3.402  0.1019  0.1255  0.3555
 1994SOL    HW1 6117   0.688   1.726   3.384 -0.2470 -2.2506 -1.0871
 1994SOL    HW2 6118   0.783   1.693   3.497 -0.9865  0.6772  0.4768
 1995SOL     OW 6119   3.772   2.491   2.538 -0.0838  0.2783 -0.1318
 1995SOL    HW1 6120   3.834   2.556   2.572 -0.8799  1.1634 -0.3377
 1995SOL    HW2 6121   3.709   2.542   2.488 -0.4940 -0.7104 -0.6405
 1996SOL     OW 6122   2.979   2.558   4.486  0.0105  0.4731  0.4760
 1996SOL    HW1 6123   3.008   2.560   4.577 -1.2139  0.7452  0.8842
 1996SOL    HW2 6124   2.931   2.640   4.475 -3.8876 -1.4947  1.0196
 1997SOL     OW 6125   2.624   2.231   4.674  0.0191 -0.4716  0.0333
 1997SOL    HW1 6126   2.609   2.288   4.749  1.2201  0.3567 -0.3295
 1997SOL    HW2 6127   2.543   2.235   4.624  0.4596  1.9051 -0.6139
 1998SOL     OW 6128   3.495   4.514   1.558 -0.5011  0.2840 -0.0340
 1998SOL    HW1 6129   3.555   4.439   1.563 -1.6411 -0.5989  1.3876
 1998SOL    HW2 6130   3.497   4.540   1.466  1.7092  0.0261 -0.1126
 1999SOL     OW 6131   0.439   0.247   0.582 -0.0660  0.3167 -0.2390
 1999SOL    HW1 6132   0.523   0.201   0.590  2.0091  3.8349  0.8147
 1999SOL    HW2 6133   0.413   0.266   0.672 -0.8137  1.1554 -0.6164
 2000SOL     OW 6134   3.977   0.686   4.201  0.2443 -0.1620  0.2680
 2000SOL    HW1 6135   3.909   0.739   4.159  1.8796  0.7140 -1.3818
 2000SOL    HW2 6136   3.995   0.731   4.283 -0.0310  0.4993 -0.0279
 2001SOL     OW 6137   3.576   0.921   1.836 -0.4615  0.0401 -0.2188
 2001SOL    HW1 6138   3.563   0.916   1.742  0.9869  0.7060 -0.4790
 2001SOL    HW2 6139   3.498   0.878   1.873 -0.2474 -1.7951 -1.7301
 2002SOL     OW 6140   0.515   0.998   2.789 -0.5867  0.3272  0.2820
 2002SOL    HW1 6141   0.608   1.019   2.779  0.0282 -1.2054  2.1232
 2002SOL    HW2 6142   0.495   1.021   2.879 -1.3563 -1.5025  0.6142
 2003SOL     OW 6143   3.485   2.116   4.457 -0.1296 -0.4811 -0.0587
 2003SOL    HW1 6144   3.526   2.085   4.376  0.6971  2.1396 -0.7270
 2003SOL    HW2 6145   3.556   2.158   4.505 -1.2139  0.6303  0.6305
 2004SOL     OW 6146   2.446   1.576   0.486  0.0937 -0.6504 -0.5496
 2004SOL    HW1 6147   2.522   1.519   0.478  0.3173 -0.1729 -2.2406
 2004SOL    HW2 6148   2.428   1.606   0.396  0.4352  2.4750  0.2990
 2005SOL     OW 6149   0.472   3.113   3.682  0.3474  0.3733 -0.2837
 2005SOL    HW1 6150   0.516   3.155   3.756  0.0273  1.0779 -0.4852
 2005SOL    HW2 6151   0.407   3.056   3.723 -0.4126  1.4072 -0.0222
 2006SOL     OW 6152   0.770   1.155   1.452  0.2001 -0.4103 -0.3228
 2006SOL    HW1 6153   0.728   1.206   1.522 -0.0502 -1.2425  0.1420
 2006SOL    HW2 6154   0.859   1.142   1.483  1.4474  2.7905 -2.0404
 2007SOL     OW 6155   2.303   2.549   2.987  0.1023  0.4152  0.1151
 2007SOL    HW1 6156   2.303   2.635   3.029 -0.7909  1.8227 -2.5005
 2007SOL    HW2 6157   2.248   2.495   3.043 -1.4560  2.3013  0.5394
 2008SOL     OW 6158   1.165   2.711   0.052 -0.0346 -0.4533  0.0702
 2008SOL    HW1 6159   1.178   2.620   0.027  3.7268 -0.1668  0.3463
 2008SOL    HW2 6160   1.195   2.761  -0.024 -1.1476  0.5670  0.2793
 2009SOL     OW 6161   4.835   3.056   3.118  0.4640  0.1742  0.0538
 2009SOL    HW1 6162   4.763   3.116   3.138 -0.7084  0.4204 -3.9741
 2009SOL    HW2 6163   4.792   2.972   3.101  1.1627  0.0943 -1.5004
 2010SOL     OW 6164   1.953   3.884   4.419 -0.2407 -0.3035 -0.1691
 2010SOL    HW1 6165   2.035   3.924   4.448  0.4994 -1.9181  0.0432
 2010SOL    HW2 6166   1.979   3.815   4.358 -1.5891  0.6991 -2.0057
 2011SOL     OW 6167   0.283   4.457   4.479 -0.2449  0.4046  0.8855
 2011SOL    HW1 6168   0.194   4.490   4.472  0.0954  1.0187 -2.3056
 2011SOL    HW2 6169   0.332   4.526   4.523 -0.7323  1.6110 -0.3932
 2012SOL     OW 6170   1.329   2.702   0.513  0.2566 -0.8898  0.3125
 2012SOL    HW1 6171   1.303   2.727   0.602 -0.0751  0.9303 -0.2612
 2012SOL    HW2 6172   1.415   2.660   0.524  0.1119 -0.8961  1.5138
 2013SOL     OW 6173   2.243   0.494   2.399 -0.0580 -0.3535  0.4034
 2013SOL    HW1 6174   2.337   0.509   2.412  0.2341 -1.6444 -0.0963
 2013SOL    HW2 6175   2.238   0.409   2.354 -1.4485 -0.1534  0.1331
 2014SOL     OW 6176   2.001   2.491   3.401  0.4956 -0.2357 -0.4851
 2014SOL    HW1 6177   1.982   2.559   3.336 -2.1594  2.7963  3.0434
 2014SOL    HW2 6178   1.942   2.419   3.378 -1.1697  1.1948 -0.8886
 2015SOL     OW 6179   2.832   4.000   3.690  0.2496 -0.1250 -0.0996
 2015SOL    HW1 6180   2.926   4.017   3.701  0.0590  0.0216  1.5780
 2015SOL    HW2 6181   2.817   3.921   3.743 -0.3477 -0.9191 -1.4093
 2016SOL     OW 6182   4.414   1.475   3.395 -0.3964  0.2836  0.0256
 2016SOL    HW1 6183   4.383   1.397   3.440 -1.7415  0.7100 -0.1441
 2016SOL    HW2 6184   4.464   1.523   3.461  2.7659 -1.9355 -0.5130
 2017SOL     OW 6185   0.572   4.319   4.709  0.1958 -0.7954 -0.4885
 2017SOL    HW1 6186   0.622   4.293   4.786  4.1501  1.6813 -1.9518
 2017SOL    HW2 6187   0.495   4.364   4.744  1.5099 -0.3354  2.0021
 2018SOL     OW 6188   4.195   1.321   1.321  0.2577 -0.1183 -0.4530
 2018SOL    HW1 6189   4.228   1.266   1.392 -0.3642 -0.8391 -0.7076
 2018SOL    HW2 6190   4.178   1.261   1.249 -0.4601  0.3957 -0.7363
 2019SOL     OW 6191   0.475   4.591   4.063  0.1719 -0.5220 -0.4233
 2019SOL    HW1 6192   0.546   4.528   4.075  1.2078  0.5958 -0.3885
 2019SOL    HW2 6193   0.479   4.615   3.970  0.7646  0.5510 -0.1455
 2020SOL     OW 6194   4.908   3.868   1.249 -0.9130 -0.2464  0.5283
 2020SOL    HW1 6195   4.879   3.933   1.186  0.9326 -2.2893 -2.6867
 2020SOL    HW2 6196   4.855   3.790   1.230  0.6033 -1.3132  0.4984
 2021SOL     OW 6197   4.326   5.015   0.852 -0.6063  0.4058 -0.2454
 2021SOL    HW1 6198   4.384   5.049   0.784 -1.3974 -0.0631 -1.1785
 2021SOL    HW2 6199   4.381   4.955   0.902 -0.5664 -1.0022 -1.8864
 2022SOL     OW 6200   4.101   4.590   0.303 -0.0145  0.2079  0.3620
 2022SOL    HW1 6201   4.060   4.526   0.244 -4.5361  1.7961  1.4113
 2022SOL    HW2 6202   4.068   4.675   0.273  0.7361  1.4224  2.7691
 2023SOL     OW 6203   3.035   4.348   2.092  0.0028 -0.3378 -0.1920
 2023SOL    HW1 6204   3.013   4.263   2.054  0.0720  0.4268 -2.0597
 2023SOL    HW2 6205   2.950   4.385   2.118 -0.2831 -0.1096 -1.3760
 2024SOL     OW 6206   2.398   3.063   3.894 -0.2380 -0.0674 -0.0912
 2024SOL    HW1 6207   2.334   3.072   3.965 -0.5958 -0.2985 -0.3840
 2024SOL    HW2 6208   2.482   3.051   3.939 -0.2451  1.2221  0.3119
 2025SOL     OW 6209   3.073   2.863   1.093 -0.5423  0.6887  0.2995
 2025SOL    HW1 6210   3.005   2.918   1.055 -2.0679 -0.4118  1.3626
 2025SOL    HW2 6211   3.041   2.840   1.180  1.4197  0.5350  1.0501
 2026SOL     OW 6212   3.719   3.123   1.707 -0.0143  0.1730 -0.1213
 2026SOL    HW1 6213   3.682   3.210   1.727 -0.1684 -0.1132  0.8891
 2026SOL    HW2 6214   3.744   3.088   1.793 -0.0179 -0.8098 -0.5186
 2027SOL     OW 6215   0.061   1.710   2.852  0.6402 -0.3705 -0.6823
 2027SOL    HW1 6216   0.106   1.727   2.934 -3.1109 -0.8535  1.6790
 2027SOL    HW2 6217   0.058   1.615   2.845 -1.1996 -0.3957  0.0090
 2028SOL     OW 6218   0.901   3.157   2.068  0.2797 -0.3279 -0.0443
 2028SOL    HW1 6219   0.981   3.196   2.033  0.2440  0.8863  1.1785
 2028SOL    HW2 6220   0.911   3.159   2.163 -1.0101 -0.5546  0.1261
 2029SOL     OW 6221   1.474   3.887   5.040 -0.0487  0.7690 -0.1090
 2029SOL    HW1 6222   1.485   3.930   4.956  1.4117  0.3803 -0.1333
 2029SOL    HW2 6223   1.392   3.837   5.031  0.4485  0.1808 -1.5305
 2030SOL     OW 6224   1.680   4.590   4.242 -0.1043  0.1694  0.0182
 2030SOL    HW1 6225   1.706   4.584   4.150 -1.1781 -0.6720 -0.2526
 2030SOL    HW2 6226   1.609   4.654   4.243  0.1513  0.4509  0.3246
 2031SOL     OW 6227   4.546   2.885   1.049  0.6346  0.1386  0.6537
 2031SOL    HW1 6228   4.617   2.860   0.989  0.4897 -1.5342  1.1211
 2031SOL    HW2 6229   4.484   2.812   1.044 -0.5785  1.1230  0.9957
 2032SOL     OW 6230   1.782   2.562   4.978 -0.2011 -0.0520 -0.7614
 2032SOL    HW1 6231   1.871   2.572   4.944 -0.6514  0.0102 -1.9836
 2032SOL    HW2 6232   1.793   2.558   5.073  1.0303  0.7913 -0.8353
 2033SOL     OW 6233   1.923   1.170   1.988  0.0318  0.3126  0.1306
 2033SOL    HW1 6234   1.868   1.249   1.982  0.5831  0.9577  2.6193
 2033SOL    HW2 6235   2.009   1.198   1.956 -0.5290 -0.1937 -1.9760
 2034SOL     OW 6236   4.613   2.554   4.707  0.1265  0.7590 -0.0761
 2034SOL    HW1 6237   4.665   2.543   4.787 -1.9588 -2.3750  1.0574
 2034SOL    HW2 6238   4.651   2.490   4.646 -0.1225  1.0663 -0.5562
 2035SOL     OW 6239   0.621   2.532   0.495  0.7392  0.3376  0.1156
 2035SOL    HW1 6240   0.690   2.590   0.528  0.0343  0.2947  1.7595
 2035SOL    HW2 6241   0.664   2.448   0.482  0.9618  0.2533  1.3382
 2036SOL     OW 6242   3.553   1.594   4.721  0.8756  0.1621  0.4873
 2036SOL    HW1 6243   3.566   1.628   4.810  2.1139 -2.3417  1.3619
 2036SOL    HW2 6244   3.511   1.509   4.734  0.1624  0.1792 -1.4169
 2037SOL     OW 6245   3.784   0.551   2.643 -0.2391  0.6835 -0.1077
 2037SOL    HW1 6246   3.822   0.615   2.582  0.3126  0.1364 -0.3512
 2037SOL    HW2 6247   3.839   0.473   2.633  0.6882  0.9926  2.0263
 2038SOL     OW 6248   1.153   3.013   0.656  0.1691 -0.1897  0.4460
 2038SOL    HW1 6249   1.210   2.942   0.687 -0.0831 -0.2153  0.8612
 2038SOL    HW2 6250   1.102   3.038   0.733  0.3244  0.5127  0.3247
 2039SOL     OW 6251   1.985   0.664   1.794  0.1406 -0.0371  0.0015
 2039SOL    HW1 6252   1.965   0.634   1.705 -1.9354  2.7000 -0.6199
 2039SOL    HW2 6253   2.077   0.690   1.790  0.4011 -1.0000 -0.9984
 2040SOL     OW 6254   2.783   4.521   4.436  0.4944 -0.0919 -0.2978
 2040SOL    HW1 6255   2.774   4.442   4.490  0.6742  0.6308  0.8231
 2040SOL    HW2 6256   2.759   4.492   4.348  0.5324 -1.3930  0.0898
 2041SOL     OW 6257   4.168   4.286   0.324  0.3769 -0.3181  0.4713
 2041SOL    HW1 6258   4.185   4.207   0.274 -3.0829 -1.5256  0.9803
 2041SOL    HW2 6259   4.127   4.346   0.262 -0.8027 -0.5247  1.0358
 2042SOL     OW 6260   0.081   2.321   1.936 -0.2582  0.1714 -0.1678
 2042SOL    HW1 6261   0.048   2.281   1.855  1.4819 -0.0071 -0.8323
 2042SOL    HW2 6262   0.104   2.411   1.911 -0.5947  0.4085  0.3684
 2043SOL     OW 6263   3.617   1.640   4.987 -0.6556  0.1362  0.8527
 2043SOL    HW1 6264   3.574   1.626   5.071 -0.4427 -3.3605  0.5269
 2043SOL    HW2 6265   3.710   1.629   5.006 -0.5629 -0.1827  0.2410
 2044SOL     OW 6266   1.172   2.868   2.188  0.1293 -0.0772 -0.0144
 2044SOL    HW1 6267   1.078   2.875   2.209  0.3212  1.3475  0.4602
 2044SOL    HW2 6268   1.200   2.789   2.235 -0.9651 -0.9438 -0.7470
 2045SOL     OW 6269   2.446   4.361   3.609  0.5385 -0.6295  0.0527
 2045SOL    HW1 6270   2.429   4.309   3.531  0.1118 -0.8592  0.2974
 2045SOL    HW2 6271   2.520   4.319   3.651 -0.6335 -1.8569  0.9646
 2046SOL     OW 6272   4.833   2.965   3.659  0.2431 -0.0588 -0.4607
 2046SOL    HW1 6273   4.902   2.978   3.725 -1.0645  0.1973  0.9010
 2046SOL    HW2 6274   4.769   3.034   3.677 -2.3964 -2.6762  1.0097
 2047SOL     OW 6275   0.402   5.014   1.886 -0.1166  0.2916 -0.1739
 2047SOL    HW1 6276   0.355   4.933   1.865  0.2577  0.5215 -2.1162
 2047SOL    HW2 6277   0.336   5.069   1.928 -0.3535 -1.0172  1.2456
 2048SOL     OW 6278   3.672   4.571   4.121  0.0905  0.6775  0.6200
 2048SOL    HW1 6279   3.608   4.630   4.162  0.6888  2.0035 -0.2683
 2048SOL    HW2 6280   3.756   4.616   4.131  0.8556 -0.8970  1.4955
 2049SOL     OW 6281   3.013   3.675   2.420 -0.5134  0.2332 -0.4512
 2049SOL    HW1 6282   2.920   3.690   2.406 -0.4715 -0.6876 -1.9300
 2049SOL    HW2 6283   3.017   3.605   2.486 -0.8471  0.6562  0.0222
 2050SOL     OW 6284   4.874   1.660   0.123  0.1184  0.3876 -0.0423
 2050SOL    HW1 6285   4.891   1.573   0.159  0.0914 -0.0597 -1.0932
 2050SOL    HW2 6286   4.780   1.673   0.132  0.1127  0.2798  0.0469
 2051SOL     OW 6287   2.975   1.197   0.435 -0.0510  0.4094  0.2776
 2051SOL    HW1 6288   2.914   1.130   0.466  1.2518 -0.0213  2.0905
 2051SOL    HW2 6289   2.944   1.218   0.347 -1.5280 -1.3205  0.3062
 2052SOL     OW 6290   0.306   4.662   0.190 -0.2812 -0.4342 -0.5543
 2052SOL    HW1 6291   0.345   4.628   0.109 -1.5186 -2.2117 -0.4582
 2052SOL    HW2 6292   0.341   4.751   0.197  2.3743 -1.2971 -1.3449
 2053SOL     OW 6293   0.054   4.957   1.427  0.2252  0.4426 -0.6260
 2053SOL    HW1 6294   0.075   4.900   1.353 -3.9724  0.2713 -1.9605
 2053SOL    HW2 6295   0.089   5.042   1.403  0.5954 -0.0542 -1.9074
 2054SOL     OW 6296   3.175   0.695   0.961 -0.3306 -0.4710 -0.0621
 2054SOL    HW1 6297   3.247   0.733   1.011  0.0831  0.1228 -1.0705
 2054SOL    HW2 6298   3.208   0.692   0.871 -1.7957  0.4074 -0.6629
 2055SOL     OW 6299   2.330   0.887   0.892 -0.8967 -0.5497 -0.2728
 2055SOL    HW1 6300   2.294   0.830   0.960 -0.1719  0.3104  0.8740
 2055SOL    HW2 6301   2.388   0.831   0.841 -0.4369 -0.9179  0.6422
 2056SOL     OW 6302   0.960   1.029   4.362  0.2402 -0.3250  0.8927
 2056SOL    HW1 6303   0.962   0.935   4.378  0.4060 -0.5158 -0.2319
 2056SOL    HW2 6304   0.917   1.039   4.278 -1.2109  0.7124  1.7150
 2057SOL     OW 6305   1.384   4.371   3.417  0.3996 -0.1086  0.6746
 2057SOL    HW1 6306   1.343   4.295   3.457  1.8559 -1.3216 -0.0512
 2057SOL    HW2 6307   1.381   4.439   3.484 -0.1293 -1.0767  1.6463
 2058SOL     OW 6308   1.130   2.460   2.868  0.5229 -0.0924  0.0403
 2058SOL    HW1 6309   1.065   2.425   2.806  0.5640  1.0588 -0.6858
 2058SOL    HW2 6310   1.097   2.548   2.889  1.0431 -0.0915  0.8727
 2059SOL     OW 6311   4.259   1.745   0.835  0.0871 -0.3499 -0.1075
 2059SOL    HW1 6312   4.347   1.780   0.818  0.1105  0.2818  1.2066
 2059SOL    HW2 6313   4.227   1.795   0.910 -0.8494 -1.4986  0.3005
 2060SOL     OW 6314   0.923   3.895   4.925  0.3224  0.4430  0.2062
 2060SOL    HW1 6315   0.835   3.932   4.932 -0.1454 -0.7109  0.5480
 2060SOL    HW2 6316   0.980   3.963   4.961 -0.5723  0.6379  1.3168
 2061SOL     OW 6317   2.808   4.558   3.231 -0.1010  0.1587  0.9121
 2061SOL    HW1 6318   2.786   4.606   3.151  2.3444  0.9975  0.6256
 2061SOL    HW2 6319   2.742   4.490   3.238 -1.1203  0.8583 -1.1234
 2062SOL     OW 6320   3.503   3.941   0.331  0.3549 -0.2264 -0.3007
 2062SOL    HW1 6321   3.528   3.852   0.309 -0.8398 -0.3256 -1.4105
 2062SOL    HW2 6322   3.458   3.973   0.252 -0.3910  0.8900  0.5439
 2063SOL     OW 6323   1.961   3.584   4.466 -0.2494  0.2450  0.0534
 2063SOL    HW1 6324   1.877   3.568   4.509 -0.2819  1.7457  0.6128
 2063SOL    HW2 6325   2.021   3.602   4.537  0.5286 -0.6834 -0.3562
 2064SOL     OW 6326   3.836   1.251   1.201  0.0130  0.2527  0.3584
 2064SOL    HW1 6327   3.924   1.225   1.173 -0.2941 -0.8250  0.3432
 2064SOL    HW2 6328   3.821   1.200   1.281  0.2221  2.0235  1.5806
 2065SOL     OW 6329   2.967   3.094   0.812  0.3315 -0.4736 -0.0982
 2065SOL    HW1 6330   3.003   3.111   0.725 -3.0750  0.6020 -1.4489
 2065SOL    HW2 6331   2.992   3.171   0.863 -1.8101  1.3986 -1.6726
 2066SOL     OW 6332   4.300   2.842   0.121 -0.1381  0.1080  0.1689
 2066SOL    HW1 6333   4.320   2.754   0.090  0.5881  0.6338 -0.9431
 2066SOL    HW2 6334   4.269   2.889   0.043 -1.4744  0.5780  0.9411
 2067SOL     OW 6335   2.207   3.448   1.999  0.5375  0.5091 -0.3355
 2067SOL    HW1 6336   2.127   3.488   2.031  0.3702 -0.2781  0.2603
 2067SOL    HW2 6337   2.273   3.469   2.065  0.4208 -0.2719  0.0446
 2068SOL     OW 6338   0.730   3.395   0.058  0.7705  0.2167  0.4489
 2068SOL    HW1 6339   0.740   3.480   0.014  1.4142 -0.0654  0.0286
 2068SOL    HW2 6340   0.653   3.405   0.113 -0.1464  0.5448 -0.8502
 2069SOL     OW 6341   0.863   3.758   3.311 -0.7269 -0.2002 -0.2600
 2069SOL    HW1 6342   0.832   3.840   3.272 -0.0643  1.1050  1.7936
 2069SOL    HW2 6343   0.802   3.691   3.279 -2.5456  1.4372 -0.3785
 2070SOL     OW 6344   3.504   3.787   2.841  0.2376 -0.5296  0.3590
 2070SOL    HW1 6345   3.460   3.863   2.804 -1.6643 -2.1867 -1.0449
 2070SOL    HW2 6346   3.570   3.764   2.775 -0.3819 -1.1045 -0.0673
 2071SOL     OW 6347   1.713   0.447   4.210 -0.4849  0.3481  0.6907
 2071SOL    HW1 6348   1.656   0.523   4.196 -0.5077  0.4989  1.5521
 2071SOL    HW2 6349   1.667   0.375   4.168 -0.8529  0.6579  0.5550
 2072SOL     OW 6350   0.961   1.948   3.949  0.3982 -0.0172  0.3703
 2072SOL    HW1 6351   1.026   1.915   3.887  0.0030 -0.5713  0.2436
 2072SOL    HW2 6352   0.887   1.887   3.942 -1.5559  2.4058 -1.8968
 2073SOL     OW 6353   4.766   1.501   4.339 -0.1549  0.1221  0.3610
 2073SOL    HW1 6354   4.835   1.539   4.284 -0.2909 -0.7957 -0.4616
 2073SOL    HW2 6355   4.754   1.412   4.306 -0.0435 -0.5750  2.0737
 2074SOL     OW 6356   0.867   4.934   1.167 -0.1087 -0.8235 -0.2134
 2074SOL    HW1 6357   0.823   4.865   1.216  1.6411 -0.7748  1.5577
 2074SOL    HW2 6358   0.943   4.957   1.220 -0.9331  2.9456 -0.3440
 2075SOL     OW 6359   1.331   0.833   1.583  0.0884 -0.1736  0.5685
 2075SOL    HW1 6360   1.415   0.814   1.625  0.1105 -0.3164  0.4604
 2075SOL    HW2 6361   1.348   0.910   1.529 -0.1249  0.4696  1.3940
 2076SOL     OW 6362   1.350   4.497   2.929  0.1285  0.2161  0.2251
 2076SOL    HW1 6363   1.393   4.443   2.995 -0.1044  0.0878  0.2706
 2076SOL    HW2 6364   1.389   4.584   2.941 -0.1595  0.2741  0.7583
 2077SOL     OW 6365   1.130   3.617   0.892  0.7429 -0.1985  0.1856
 2077SOL    HW1 6366   1.037   3.636   0.903  0.6252 -0.0349 -0.9475
 2077SOL    HW2 6367   1.174   3.676   0.952  0.1447  0.2750  0.1682
 2078SOL     OW 6368   4.280   1.330   3.791 -0.0878  0.3873  0.8967
 2078SOL    HW1 6369   4.354   1.269   3.801 -0.5887 -0.8434 -1.9883
 2078SOL    HW2 6370   4.203   1.275   3.802 -0.5526  0.9913  0.6681
 2079SOL     OW 6371   1.716   1.444   4.323  0.1913 -0.5672  0.3761
 2079SOL    HW1 6372   1.671   1.451   4.407  1.2855 -0.6307  0.9788
 2079SOL    HW2 6373   1.728   1.350   4.310  0.1588 -0.5502  0.2137
 2080SOL     OW 6374   2.893   1.193   0.182  0.8020 -0.4403 -0.0227
 2080SOL    HW1 6375   2.871   1.269   0.129  0.0622 -1.6574 -1.5228
 2080SOL    HW2 6376   2.908   1.122   0.119 -0.0604 -1.9315  1.3605
 2081SOL     OW 6377   0.337   2.369   1.188 -0.0329  0.6941  0.0092
 2081SOL    HW1 6378   0.304   2.303   1.250  0.0754  1.0256  0.4203
 2081SOL    HW2 6379   0.352   2.319   1.108 -0.4539  0.3160  0.1558
 2082SOL     OW 6380   0.053   2.392   2.782 -0.2238  0.2185  0.1502
 2082SOL    HW1 6381  -0.040   2.373   2.770 -0.2988 -0.7891  2.0408
 2082SOL    HW2 6382   0.097   2.332   2.721 -0.7928  0.2872 -0.3337
 2083SOL     OW 6383   4.497   4.425   4.286 -0.2938  0.3430 -0.3392
 2083SOL    HW1 6384   4.558   4.362   4.325 -0.6329 -0.0281 -0.4146
 2083SOL    HW2 6385   4.443   4.374   4.226 -0.0790  0.8292 -0.9695
 2084SOL     OW 6386   1.306   1.282   2.120  0.3660  0.0446 -0.1092
 2084SOL    HW1 6387   1.337   1.326   2.199 -0.9579 -0.5587  0.8102
 2084SOL    HW2 6388   1.210   1.279   2.131  0.2947 -1.6978 -0.8236
 2085SOL     OW 6389   0.460   4.209   2.875 -0.0383 -0.1373  0.0075
 2085SOL    HW1 6390   0.411   4.129   2.861 -0.2389  0.1235 -0.8712
 2085SOL    HW2 6391   0.444   4.232   2.967 -0.8985 -0.4918 -0.0464
 2086SOL     OW 6392   0.822   0.174   0.234  0.0274  0.2448 -0.2875
 2086SOL    HW1 6393   0.874   0.247   0.269 -0.2263  0.1418  0.3148
 2086SOL    HW2 6394   0.885   0.102   0.224  0.1838  0.4011 -0.4381
 2087SOL     OW 6395   4.178   1.495   1.902 -0.2864 -0.3512  0.6035
 2087SOL    HW1 6396   4.087   1.467   1.918  0.3779 -1.7299  2.2395
 2087SOL    HW2 6397   4.212   1.516   1.989  0.0478  3.3729 -0.2387
 2088SOL     OW 6398   0.504   4.175   1.578 -0.5418  0.1604  0.2573
 2088SOL    HW1 6399   0.571   4.223   1.626 -0.6750 -0.4885  1.1172
 2088SOL    HW2 6400   0.506   4.087   1.616 -0.1691 -0.5946 -1.3997
 2089SOL     OW 6401   0.470   0.212   0.203 -0.4691 -0.4817 -0.0024
 2089SOL    HW1 6402   0.558   0.178   0.218  0.1219  0.3679 -1.3467
 2089SOL    HW2 6403   0.412   0.147   0.243  0.7336 -1.3307  0.4214
 2090SOL     OW 6404   4.189   1.602   3.640  0.1166  0.3259 -0.8516
 2090SOL    HW1 6405   4.172   1.515   3.604  0.3311 -0.9283  1.8385
 2090SOL    HW2 6406   4.102   1.638   3.656  0.0287  0.2759 -1.1986
 2091SOL     OW 6407   2.364   1.840   1.476  0.0933 -0.1932 -0.1870
 2091SOL    HW1 6408   2.323   1.831   1.390  1.3088  0.6249 -0.8797
 2091SOL    HW2 6409   2.317   1.912   1.517  2.0186  2.1258 -1.7762
 2092SOL     OW 6410   2.654   4.013   4.349  0.2182 -0.1573  0.2230
 2092SOL    HW1 6411   2.609   4.078   4.403 -0.7994 -0.9027  0.3066
 2092SOL    HW2 6412   2.729   4.060   4.311  0.7201  0.4908  1.9405
 2093SOL     OW 6413   4.494   0.093   3.945 -0.6677 -0.2107 -0.1081
 2093SOL    HW1 6414   4.522   0.148   3.871 -1.3869 -0.2591 -0.4285
 2093SOL    HW2 6415   4.468   0.010   3.904 -0.4157 -0.4876  0.2823
 2094SOL     OW 6416   1.532   2.788   4.258 -0.6256  0.3757 -0.6903
 2094SOL    HW1 6417   1.571   2.872   4.234  0.5392  0.4934  1.4137
 2094SOL    HW2 6418   1.518   2.744   4.174  0.0962  2.0649 -1.7573
 2095SOL     OW 6419   3.040   0.997   2.578  0.2633  0.7133  0.0138
 2095SOL    HW1 6420   3.057   1.008   2.672  0.7022 -0.1700  0.0436
 2095SOL    HW2 6421   3.105   0.934   2.549  0.0322  0.8668 -0.8647
 2096SOL     OW 6422   3.822   0.452   0.046 -0.2851 -0.0332  0.0842
 2096SOL    HW1 6423   3.803   0.359   0.036 -1.9095  0.2426  0.2121
 2096SOL    HW2 6424   3.830   0.485  -0.044  1.5305 -0.4939  0.0500
 2097SOL     OW 6425   3.846   3.771   2.982  0.1927 -0.1864 -0.0867
 2097SOL    HW1 6426   3.799   3.688   2.981  1.1811 -0.8534  1.9452
 2097SOL    HW2 6427   3.794   3.827   3.040  0.0808  0.2474 -0.6059
 2098SOL     OW 6428   4.412   1.709   0.559 -0.7996 -0.0404 -0.1779
 2098SOL    HW1 6429   4.472   1.718   0.485  0.0032 -1.2126  0.3061
 2098SOL    HW2 6430   4.379   1.798   0.574 -0.3962  0.3444 -1.4466
 2099SOL     OW 6431   4.608   1.463   3.964  0.0577  0.0342  0.5467
 2099SOL    HW1 6432   4.679   1.523   3.942  1.2528 -0.8055  1.9118
 2099SOL    HW2 6433   4.551   1.513   4.023  1.0116 -0.1161  1.6254
 2100SOL     OW 6434   2.545   4.038   3.192  0.0314  0.5786  0.5324
 2100SOL    HW1 6435   2.638   4.018   3.203  0.5907  1.7343 -1.5947
 2100SOL    HW2 6436   2.502   3.996   3.267  1.9671 -1.9623  0.3505
 2101SOL     OW 6437   3.383   0.740   4.143  0.2328 -0.4119  0.4793
 2101SOL    HW1 6438   3.438   0.664   4.123 -0.9554 -1.2601  0.3178
 2101SOL    HW2 6439   3.364   0.778   4.057 -3.2317 -2.8932 -0.0651
 2102SOL     OW 6440   1.762   3.675   1.822  0.5934  0.2512  0.4637
 2102SOL    HW1 6441   1.751   3.628   1.904 -0.3930 -0.8610 -0.2841
 2102SOL    HW2 6442   1.798   3.760   1.848 -1.4172  0.6290  2.2309
 2103SOL     OW 6443   4.935   0.484   4.581  1.1336 -0.2639  0.3777
 2103SOL    HW1 6444   4.916   0.575   4.558 -0.6677 -0.7157 -0.1283
 2103SOL    HW2 6445   5.005   0.458   4.521 -0.3155 -0.0316 -1.5267
 2104SOL     OW 6446   2.059   3.762   3.514 -0.2321 -0.1145 -0.3444
 2104SOL    HW1 6447   2.064   3.742   3.607 -1.1934 -1.1790 -0.4930
 2104SOL    HW2 6448   2.055   3.676   3.471 -2.2762  0.3174 -1.1774
 2105SOL     OW 6449   2.367   1.591   2.352  0.5288 -0.1441 -0.2560
 2105SOL    HW1 6450   2.299   1.601   2.286  1.1011 -1.6190 -1.1308
 2105SOL    HW2 6451   2.331   1.529   2.415  0.1594  0.9166  0.6135
 2106SOL     OW 6452   3.804   4.922   4.402 -0.2056 -0.2449  0.0430
 2106SOL    HW1 6453   3.797   5.008   4.359  0.0028  0.3275  1.1126
 2106SOL    HW2 6454   3.865   4.937   4.474  0.7717 -1.5943 -0.4597
 2107SOL     OW 6455   3.345   2.653   2.047  0.5218  0.4789  0.4381
 2107SOL    HW1 6456   3.366   2.573   2.096 -1.0580  0.1744  0.6946
 2107SOL    HW2 6457   3.261   2.681   2.083  1.0185  2.2357  0.2914
 2108SOL     OW 6458   3.307   3.573   2.567  0.0550 -0.2331 -0.0347
 2108SOL    HW1 6459   3.306   3.643   2.632 -0.4557 -1.8121  1.7872
 2108SOL    HW2 6460   3.344   3.612   2.489 -0.3970  2.0891  0.8464
 2109SOL     OW 6461   3.673   3.687   2.631 -0.1468 -0.2421 -0.8785
 2109SOL    HW1 6462   3.759   3.716   2.661 -0.7583  0.7149  0.0211
 2109SOL    HW2 6463   3.682   3.679   2.536  1.1009 -0.7895 -0.7327
 2110SOL     OW 6464   0.005   1.370   1.762  0.2467  0.5536  0.1401
 2110SOL    HW1 6465   0.071   1.308   1.733 -1.1034 -0.3715 -1.1012
 2110SOL    HW2 6466  -0.004   1.353   1.856 -2.5187 -3.7853 -0.5792
 2111SOL     OW 6467   2.354   3.764   0.098 -0.5223  0.1350  0.0472
 2111SOL    HW1 6468   2.418   3.735   0.163 -1.5623  0.8510  1.4464
 2111SOL    HW2 6469   2.307   3.835   0.140 -1.1903  0.6864 -1.5416
 2112SOL     OW 6470   4.307   3.107   1.177  0.1448  0.2948 -0.0373
 2112SOL    HW1 6471   4.231   3.060   1.142  0.4154  0.2783 -0.6132
 2112SOL    HW2 6472   4.364   3.119   1.102  0.5865  0.5601  0.3375
 2113SOL     OW 6473   0.938   2.677   1.960  0.5304  0.0714  0.2615
 2113SOL    HW1 6474   0.911   2.761   1.995 -0.7761 -0.3514  0.2965
 2113SOL    HW2 6475   0.929   2.616   2.033  0.8880 -0.2131  0.0710
 2114SOL     OW 6476   2.883   3.944   2.662 -0.1001  0.3078 -0.0185
 2114SOL    HW1 6477   2.817   3.990   2.714  0.0552  1.1770 -0.5743
 2114SOL    HW2 6478   2.877   3.983   2.575 -0.2573 -1.0262 -0.6382
 2115SOL     OW 6479   4.577   3.042   0.072  0.0344  0.3245 -0.3518
 2115SOL    HW1 6480   4.497   3.029   0.123 -0.4134 -0.3428 -1.1845
 2115SOL    HW2 6481   4.632   2.966   0.093 -0.3362 -0.1877 -1.1641
 2116SOL     OW 6482   4.906   1.240   2.032  0.5824 -0.0997 -0.5669
 2116SOL    HW1 6483   4.888   1.330   2.056  1.4010 -0.3497  1.1452
 2116SOL    HW2 6484   4.974   1.212   2.093 -0.7866 -2.3742  0.0358
 2117SOL     OW 6485   3.157   0.714   4.297  0.0267  0.5839  0.7307
 2117SOL    HW1 6486   3.201   0.722   4.382  0.3942  0.9223  0.5151
 2117SOL    HW2 6487   3.228   0.701   4.234 -0.3784 -2.1939  0.7419
 2118SOL     OW 6488   1.789   3.037   3.561 -0.1404  0.1170 -0.0825
 2118SOL    HW1 6489   1.871   2.992   3.541 -0.0251 -0.0768  0.7960
 2118SOL    HW2 6490   1.814   3.128   3.575  0.0218 -0.0547  0.7863
 2119SOL     OW 6491   2.788   3.777   1.177  0.1274 -0.0241  1.0954
 2119SOL    HW1 6492   2.825   3.713   1.237 -1.3299 -1.1064  0.9025
 2119SOL    HW2 6493   2.813   3.862   1.214 -1.3986 -0.6142  3.7181
 2120SOL     OW 6494   1.917   3.608   4.195  0.8017  0.0556 -0.0252
 2120SOL    HW1 6495   1.855   3.546   4.234 -0.4272  1.8197  0.9168
 2120SOL    HW2 6496   1.986   3.616   4.260  0.8485 -0.1138 -0.0511
 2121SOL     OW 6497   4.575   0.066   0.777  0.5785 -0.6625 -0.0958
 2121SOL    HW1 6498   4.620   0.131   0.830 -1.0787 -0.0247  0.6029
 2121SOL    HW2 6499   4.570   0.106   0.690 -2.0590  1.0958  0.7401
 2122SOL     OW 6500   4.704   0.936   4.670  0.3637 -0.4399  0.2168
 2122SOL    HW1 6501   4.746   0.892   4.744  1.7072 -0.2551 -0.4097
 2122SOL    HW2 6502   4.689   0.866   4.607  0.7631 -0.3209 -0.0121
 2123SOL     OW 6503   1.371   2.094   1.334  0.1621  0.1184 -0.2347
 2123SOL    HW1 6504   1.371   2.016   1.280 -1.2218 -1.1238  1.4271
 2123SOL    HW2 6505   1.461   2.103   1.364  0.0811 -1.8027  0.7679
 2124SOL     OW 6506   0.248   4.835   3.080 -0.2198  0.1547 -0.1295
 2124SOL    HW1 6507   0.245   4.765   3.145 -2.2418  0.2260 -0.0701
 2124SOL    HW2 6508   0.323   4.813   3.025  1.0100 -0.3718  1.6740
 2125SOL     OW 6509   4.405   0.222   1.051  0.3608 -0.7234  0.6243
 2125SOL    HW1 6510   4.443   0.228   1.138  4.1758 -0.6536 -0.8427
 2125SOL    HW2 6511   4.422   0.131   1.024 -0.1733 -0.5665 -0.2898
 2126SOL     OW 6512   4.925   2.990   2.032 -0.1690  0.3064  0.6296
 2126SOL    HW1 6513   4.888   2.952   1.953  0.4162 -0.3319  0.6554
 2126SOL    HW2 6514   4.884   3.077   2.038  0.0710  0.5212 -0.5742
 2127SOL     OW 6515   1.501   3.074   0.104  0.1790  0.4731  0.1071
 2127SOL    HW1 6516   1.498   3.098   0.011  2.5048 -0.1785 -0.1923
 2127SOL    HW2 6517   1.577   3.121   0.138 -0.9520  1.1500  1.8677
 2128SOL     OW 6518   0.855   3.236   0.732 -0.1871  0.1206 -0.3433
 2128SOL    HW1 6519   0.859   3.179   0.809  0.1846 -0.0845 -0.5151
 2128SOL    HW2 6520   0.939   3.281   0.730  0.3617 -0.9125 -1.4186
 2129SOL     OW 6521   3.347   1.866   4.168  0.4813 -0.0579  0.3004
 2129SOL    HW1 6522   3.408   1.913   4.111  1.2507 -1.0277  0.3052
 2129SOL    HW2 6523   3.349   1.776   4.137 -0.3541 -0.2695  0.8170
 2130SOL     OW 6524   0.788   2.975   1.904  0.3051 -1.0692 -0.6749
 2130SOL    HW1 6525   0.825   2.983   1.816 -0.7872  1.9654 -0.9680
 2130SOL    HW2 6526   0.839   3.036   1.957 -0.8583 -0.7762  0.1395
 2131SOL     OW 6527   2.391   1.754   0.829 -0.6221 -0.4739  0.2092
 2131SOL    HW1 6528   2.334   1.685   0.793  1.1860 -2.3939  0.8318
 2131SOL    HW2 6529   2.434   1.712   0.903  0.1556  1.5463  0.9454
 2132SOL     OW 6530   3.539   0.253   1.559  0.7798  0.6657  0.1569
 2132SOL    HW1 6531   3.614   0.297   1.519  2.2997 -2.1694 -0.3810
 2132SOL    HW2 6532   3.550   0.268   1.653  1.2137  1.4126 -0.0003
 2133SOL     OW 6533   0.198   4.561   1.390 -0.1069 -0.3769 -0.1340
 2133SOL    HW1 6534   0.107   4.532   1.385 -0.6211  1.1737 -0.4714
 2133SOL    HW2 6535   0.243   4.511   1.322 -1.5772  1.6371 -2.7684
 2134SOL     OW 6536   0.068   0.070   1.093  0.5433 -0.5153  0.5255
 2134SOL    HW1 6537   0.065   0.097   1.185 -0.2855  0.0606  0.3364
 2134SOL    HW2 6538  -0.008   0.112   1.053  1.0556 -0.5293 -0.4895
 2135SOL     OW 6539   1.160   0.627   1.598 -0.0872  0.0571 -0.0454
 2135SOL    HW1 6540   1.161   0.616   1.693  0.3143  0.5839  0.0187
 2135SOL    HW2 6541   1.224   0.697   1.582  1.1866 -1.2364 -0.8676
 2136SOL     OW 6542   2.493   1.775   0.296 -0.3330  1.3887 -0.2419
 2136SOL    HW1 6543   2.437   1.815   0.362 -1.8267  0.6898 -1.0269
 2136SOL    HW2 6544   2.435   1.760   0.221 -0.0694 -2.5962  0.1231
 2137SOL     OW 6545   4.775   3.209   3.446  0.0775  0.0492 -0.1653
 2137SOL    HW1 6546   4.863   3.174   3.432  0.6488  1.1770  0.4473
 2137SOL    HW2 6547   4.752   3.182   3.534  1.9818  3.9643  1.7730
 2138SOL     OW 6548   1.740   3.958   3.387 -0.5520 -0.1129  0.2750
 2138SOL    HW1 6549   1.683   3.938   3.313  0.5456 -0.3307 -0.5523
 2138SOL    HW2 6550   1.753   3.873   3.431  0.0351 -0.2949 -0.2252
 2139SOL     OW 6551   1.790   2.856   1.672 -0.6875 -0.0829  0.5928
 2139SOL    HW1 6552   1.759   2.927   1.616 -2.4532 -0.7334  0.6849
 2139SOL    HW2 6553   1.881   2.877   1.690 -0.4683  0.8583 -1.4020
 2140SOL     OW 6554   1.331   2.115   1.601  0.2647 -0.2450 -0.1698
 2140SOL    HW1 6555   1.328   2.144   1.509  1.2833 -0.7088 -0.3604
 2140SOL    HW2 6556   1.336   2.020   1.596 -3.2513 -0.5739  0.4565
 2141SOL     OW 6557   3.410   2.318   0.916 -0.6828 -0.3442 -0.1121
 2141SOL    HW1 6558   3.426   2.365   0.998 -0.1041  0.6436 -0.7577
 2141SOL    HW2 6559   3.317   2.297   0.917 -0.4768 -1.2843  1.2630
 2142SOL     OW 6560   0.257   4.065   3.957  0.0057  0.7654 -0.1120
 2142SOL    HW1 6561   0.268   4.160   3.958 -0.0460  0.8081  2.3255
 2142SOL    HW2 6562   0.319   4.033   4.023  0.8091 -1.0291 -1.6464
 2143SOL     OW 6563   3.497   2.175   2.006  0.5251  0.2176 -0.5792
 2143SOL    HW1 6564   3.536   2.193   2.091 -2.4105  0.0779  0.9230
 2143SOL    HW2 6565   3.503   2.080   1.997 -2.8308 -0.3897  1.6196
 2144SOL     OW 6566   3.217   2.715   1.810 -0.0708  0.1121 -0.2627
 2144SOL    HW1 6567   3.167   2.636   1.830 -0.3614  0.2545 -0.4014
 2144SOL    HW2 6568   3.299   2.705   1.857 -0.0693 -0.3126 -0.3530
 2145SOL     OW 6569   2.929   1.516   1.399  0.2683  0.1017  0.0667
 2145SOL    HW1 6570   2.963   1.550   1.482 -0.0066 -0.3395  0.3675
 2145SOL    HW2 6571   3.000   1.528   1.336  1.6040 -2.2001  1.0028
 2146SOL     OW 6572   0.968   2.999   2.571 -0.3671 -0.2593 -0.4707
 2146SOL    HW1 6573   0.978   2.945   2.649 -4.4757  1.9076  1.9044
 2146SOL    HW2 6574   1.005   3.083   2.595 -1.5392  0.3870 -0.8252
 2147SOL     OW 6575   2.839   0.833   4.236 -0.6556 -0.0043  0.2852
 2147SOL    HW1 6576   2.804   0.763   4.290 -0.6077  0.2232  0.6137
 2147SOL    HW2 6577   2.890   0.887   4.296 -1.6072  0.9436  0.2698
 2148SOL     OW 6578   1.982   4.865   0.935  0.3361  0.4475  0.5200
 2148SOL    HW1 6579   1.996   4.771   0.944 -2.3928 -0.1928 -0.6190
 2148SOL    HW2 6580   1.963   4.877   0.842 -1.4036  1.7516  0.9912
 2149SOL     OW 6581   2.464   3.608   3.948  0.0516 -0.0439  0.2301
 2149SOL    HW1 6582   2.433   3.518   3.936  0.1269 -0.0561  0.1168
 2149SOL    HW2 6583   2.389   3.655   3.983  0.0486 -0.1782  0.4064
 2150SOL     OW 6584   4.312   3.406   4.851 -0.0789 -0.5035 -0.3172
 2150SOL    HW1 6585   4.217   3.412   4.855  0.0104  0.7129  0.5274
 2150SOL    HW2 6586   4.330   3.313   4.845 -1.2637 -0.8860  1.4115
 2151SOL     OW 6587   0.879   0.369   2.728  0.4523  0.5154 -0.1655
 2151SOL    HW1 6588   0.854   0.295   2.673 -0.8056  0.6239  0.2412
 2151SOL    HW2 6589   0.951   0.411   2.681  0.3005 -0.1914 -1.0418
 2152SOL     OW 6590   4.197   2.904   3.058 -0.5916  0.3878 -0.1786
 2152SOL    HW1 6591   4.155   2.825   3.024 -0.1552 -0.6942  1.6746
 2152SOL    HW2 6592   4.153   2.976   3.011 -0.6863 -0.9157 -2.2372
 2153SOL     OW 6593   2.526   2.623   2.833  0.3625 -0.3730 -0.2291
 2153SOL    HW1 6594   2.597   2.619   2.897 -0.3076  0.8213  0.6471
 2153SOL    HW2 6595   2.449   2.590   2.880  0.1926 -1.0488 -0.9595
 2154SOL     OW 6596   2.796   0.741   0.820  0.0494  0.2921  0.1283
 2154SOL    HW1 6597   2.746   0.814   0.858  0.0298 -0.3206  1.3275
 2154SOL    HW2 6598   2.876   0.782   0.787 -0.8606  1.1679 -1.1267
 2155SOL     OW 6599   4.653   5.004   1.240  0.0147  0.0326  0.6734
 2155SOL    HW1 6600   4.661   5.069   1.309 -0.0822  2.6218 -1.5806
 2155SOL    HW2 6601   4.740   5.000   1.200 -0.4269  0.1265 -0.3356
 2156SOL     OW 6602   1.864   1.949   0.790  0.3391 -0.3119 -0.0754
 2156SOL    HW1 6603   1.914   1.870   0.769  0.1023 -0.3128 -0.6307
 2156SOL    HW2 6604   1.925   2.021   0.773  0.3389 -0.3415 -0.1995
 2157SOL     OW 6605   1.929   3.444   2.402 -0.1158 -0.1636  0.0253
 2157SOL    HW1 6606   1.846   3.491   2.399 -0.2097 -0.1818  1.6304
 2157SOL    HW2 6607   1.956   3.448   2.494  0.5709 -2.0546 -0.0546
 2158SOL     OW 6608   3.687   4.385   0.987 -0.1986  0.0980 -0.4548
 2158SOL    HW1 6609   3.682   4.443   1.063  1.2854 -0.0007 -0.2594
 2158SOL    HW2 6610   3.770   4.408   0.944  0.1363 -1.4680 -0.6996
 2159SOL     OW 6611   1.678   0.486   1.677  0.2960  0.0281 -0.2419
 2159SOL    HW1 6612   1.685   0.580   1.692  2.0591  0.1550 -1.5997
 2159SOL    HW2 6613   1.585   0.472   1.657 -0.2100  1.2730  1.0956
 2160SOL     OW 6614   0.339   3.609   1.055 -0.2788  0.5653  0.2870
 2160SOL    HW1 6615   0.349   3.699   1.088  0.0191  1.9684 -3.2102
 2160SOL    HW2 6616   0.259   3.612   1.003  2.2008  0.3472 -3.9519
 2161SOL     OW 6617   2.450   1.371   3.044  0.3342  0.1314 -0.4028
 2161SOL    HW1 6618   2.357   1.358   3.027  0.2040  0.9947 -0.4050
 2161SOL    HW2 6619   2.470   1.314   3.119 -0.0310 -0.5705 -0.8279
 2162SOL     OW 6620   4.850   4.194   4.648  0.1870 -0.5872 -0.1908
 2162SOL    HW1 6621   4.941   4.178   4.671  0.0305  1.0431  1.8641
 2162SOL    HW2 6622   4.806   4.206   4.732 -2.2180 -2.5587 -1.0430
 2163SOL     OW 6623   1.751   1.038   2.881  0.1210  0.9015  0.4671
 2163SOL    HW1 6624   1.813   0.966   2.880 -0.3836  0.4601 -0.9917
 2163SOL    HW2 6625   1.675   1.004   2.928 -0.0074  0.5708  0.0227
 2164SOL     OW 6626   3.008   4.064   4.088  0.1615  0.3664  0.1888
 2164SOL    HW1 6627   2.968   3.994   4.139  1.0301 -0.3514 -0.1016
 2164SOL    HW2 6628   3.100   4.039   4.079  0.0665  0.5374 -1.6047
 2165SOL     OW 6629   2.437   1.033   0.231  0.2920 -0.1911  0.6180
 2165SOL    HW1 6630   2.422   1.118   0.274 -0.3476  0.9427 -1.6910
 2165SOL    HW2 6631   2.530   1.015   0.246  0.3942  0.8228  1.3165
 2166SOL     OW 6632   0.922   2.159   1.055  0.8431  0.0833 -0.2246
 2166SOL    HW1 6633   0.901   2.251   1.039 -1.4970 -0.4050 -0.2732
 2166SOL    HW2 6634   0.960   2.128   0.973  0.5842  0.7239 -0.5868
 2167SOL     OW 6635   4.968   3.960   0.603  0.5100  0.6029 -0.0477
 2167SOL    HW1 6636   4.941   3.903   0.530  1.1301  1.5434 -1.0484
 2167SOL    HW2 6637   4.939   4.047   0.577 -0.3568  0.7767  1.4296
 2168SOL     OW 6638   0.168   0.391   0.670 -0.6309  0.3420  0.7063
 2168SOL    HW1 6639   0.232   0.401   0.600 -1.0950 -3.2132 -0.4338
 2168SOL    HW2 6640   0.215   0.418   0.749  1.1622  0.9369 -0.4958
 2169SOL     OW 6641   2.575   1.720   1.059  1.1737  0.4439 -0.1385
 2169SOL    HW1 6642   2.590   1.753   1.148  0.3756 -0.1060  0.2003
 2169SOL    HW2 6643   2.639   1.650   1.048  1.5148  0.7501 -0.1368
 2170SOL     OW 6644   2.906   2.262   4.639 -0.3326 -0.6398  0.6354
 2170SOL    HW1 6645   2.821   2.219   4.629 -0.5891 -0.4547  1.8018
 2170SOL    HW2 6646   2.965   2.192   4.669 -0.4270 -0.4787  1.2152
 2171SOL     OW 6647   1.437   1.867   1.572  0.1339 -0.0668  0.5195
 2171SOL    HW1 6648   1.431   1.852   1.478 -1.1001  1.3430  0.3460
 2171SOL    HW2 6649   1.408   1.784   1.611 -0.1434 -0.3843 -0.3362
 2172SOL     OW 6650  -0.000   3.463   2.159 -0.5862  0.3724  0.2119
 2172SOL    HW1 6651   0.054   3.384   2.166  1.5829  1.8654  1.1350
 2172SOL    HW2 6652   0.016   3.496   2.071 -0.4213  0.5177  0.2959
 2173SOL     OW 6653   3.425   2.408   0.067  0.1634  0.2901  0.5703
 2173SOL    HW1 6654   3.380   2.324   0.052 -0.7451  1.2236 -2.8399
 2173SOL    HW2 6655   3.508   2.384   0.107 -0.3615 -2.1634  0.3598
 2174SOL     OW 6656   3.007   0.417   0.686 -0.2361 -0.7708  0.5505
 2174SOL    HW1 6657   3.092   0.383   0.658 -0.9603 -1.1794 -1.3405
 2174SOL    HW2 6658   2.975   0.467   0.610 -2.1697 -1.5934  0.7564
 2175SOL     OW 6659   3.585   4.369   4.810  0.2286  0.1783  0.1478
 2175SOL    HW1 6660   3.654   4.306   4.828  0.7333  0.4841 -0.6835
 2175SOL    HW2 6661   3.612   4.413   4.729 -0.1661  1.3781  0.6363
 2176SOL     OW 6662   2.608   2.494   2.411 -0.3118  0.4273  0.3807
 2176SOL    HW1 6663   2.626   2.416   2.358 -1.0559 -0.4944  1.4329
 2176SOL    HW2 6664   2.551   2.548   2.356  0.4024  0.3532 -0.4518
 2177SOL     OW 6665   4.544   0.466   2.116 -0.4551  0.2291 -0.1621
 2177SOL    HW1 6666   4.610   0.420   2.168 -0.0264 -1.3504 -1.9652
 2177SOL    HW2 6667   4.593   0.532   2.067 -0.5140  0.3270 -0.0883
 2178SOL     OW 6668   4.617   1.928   1.167 -0.5091  0.1519 -0.0994
 2178SOL    HW1 6669   4.545   1.888   1.119 -0.5707 -1.0292  0.9405
 2178SOL    HW2 6670   4.695   1.878   1.141  0.2102  2.1612 -2.1331
 2179SOL     OW 6671   2.869   0.107   3.829  0.3095 -0.1279  0.1414
 2179SOL    HW1 6672   2.883   0.071   3.917  0.6905  0.6317  0.4103
 2179SOL    HW2 6673   2.921   0.187   3.829 -1.4384  1.0590 -0.0151
 2180SOL     OW 6674   4.467   1.622   1.233  0.0206 -0.0740  0.8731
 2180SOL    HW1 6675   4.541   1.646   1.289 -0.4907  0.6135  1.2767
 2180SOL    HW2 6676   4.404   1.581   1.292 -0.2758  0.1204  0.6947
 2181SOL     OW 6677   0.955   2.730   1.114  0.1583 -0.7188  0.0730
 2181SOL    HW1 6678   0.892   2.802   1.123  1.0259 -0.0324  0.8951
 2181SOL    HW2 6679   0.998   2.725   1.199  1.9824 -0.4332 -0.7756
 2182SOL     OW 6680   1.179   3.864   2.470 -0.1640  0.0524 -0.8524
 2182SOL    HW1 6681   1.225   3.825   2.544 -2.6401  0.4259  1.0355
 2182SOL    HW2 6682   1.187   3.800   2.400  0.7300 -1.1620  0.3160
 2183SOL     OW 6683   1.005   0.073   2.431 -0.3329  1.0878 -0.0039
 2183SOL    HW1 6684   0.972   0.070   2.342  1.5916 -0.9929 -0.7436
 2183SOL    HW2 6685   1.010  -0.019   2.458  0.3506  1.6005  1.7500
 2184SOL     OW 6686   4.835   2.505   4.143 -0.1430 -0.6808  0.0777
 2184SOL    HW1 6687   4.812   2.508   4.236  1.2480 -2.1316  0.5114
 2184SOL    HW2 6688   4.766   2.454   4.103 -1.2064  0.6538  0.1206
 2185SOL     OW 6689   4.406   0.212   2.957  0.9888 -0.3802 -0.3221
 2185SOL    HW1 6690   4.376   0.164   3.034  0.2088  1.0013  0.2551
 2185SOL    HW2 6691   4.425   0.300   2.990 -0.1704  0.4762 -1.8620
 2186SOL     OW 6692   0.348   4.221   2.292  0.1342  0.0186  0.4111
 2186SOL    HW1 6693   0.352   4.210   2.197 -2.3700 -0.7632  0.3190
 2186SOL    HW2 6694   0.390   4.143   2.328 -1.8691 -1.3941 -0.1416
 2187SOL     OW 6695   1.677   4.444   3.340 -0.7181 -0.0592 -0.3364
 2187SOL    HW1 6696   1.593   4.440   3.386 -0.4760  0.4337  0.1511
 2187SOL    HW2 6697   1.730   4.375   3.379  0.4115  1.9917  2.0087
 2188SOL     OW 6698   3.021   3.220   1.806 -0.2661  1.1168 -0.7631
 2188SOL    HW1 6699   2.998   3.205   1.898 -1.7889  1.8461 -0.9911
 2188SOL    HW2 6700   3.084   3.292   1.809 -1.8795  2.5833 -0.3670
 2189SOL     OW 6701   0.659   4.403   2.020  0.3676 -0.2407  0.1388
 2189SOL    HW1 6702   0.614   4.477   1.979 -1.5260 -1.3504  0.0617
 2189SOL    HW2 6703   0.696   4.439   2.100 -0.9422  0.7127  0.3541
 2190SOL     OW 6704   1.128   3.019   4.357  0.9356 -0.1103 -0.0309
 2190SOL    HW1 6705   1.035   3.026   4.379  0.4381  0.4844 -2.0585
 2190SOL    HW2 6706   1.173   3.013   4.441 -0.7402  2.0537  1.1264
 2191SOL     OW 6707   3.427   1.574   4.107 -0.3876  0.2740 -0.2261
 2191SOL    HW1 6708   3.331   1.572   4.112 -0.4506  2.9282  1.4613
 2191SOL    HW2 6709   3.456   1.532   4.187 -0.1054 -0.4603 -0.7025
 2192SOL     OW 6710   3.054   0.622   3.515 -0.3131 -0.3633 -0.2453
 2192SOL    HW1 6711   3.095   0.536   3.523 -2.2848 -1.4037 -0.6621
 2192SOL    HW2 6712   3.127   0.682   3.501  1.1186 -1.9663 -0.0290
 2193SOL     OW 6713   4.981   0.943   1.452  0.1511 -0.1597 -0.0224
 2193SOL    HW1 6714   4.926   0.891   1.395 -0.8900 -0.3620  1.1347
 2193SOL    HW2 6715   4.947   1.032   1.444  0.0785 -0.1676  0.1988
 2194SOL     OW 6716   2.540   4.706   2.647  0.1134 -0.1026  0.4952
 2194SOL    HW1 6717   2.534   4.737   2.557 -0.1667 -0.7797  0.2776
 2194SOL    HW2 6718   2.533   4.786   2.700 -0.0685  0.2632 -0.0712
 2195SOL     OW 6719   4.806   2.748   4.415 -0.4853  0.1945 -0.6148
 2195SOL    HW1 6720   4.745   2.674   4.409 -0.2000 -0.0610 -0.3973
 2195SOL    HW2 6721   4.795   2.794   4.332  0.8366 -1.2946 -1.6982
 2196SOL     OW 6722   0.735   1.053   3.695  0.3968 -0.1829 -0.0215
 2196SOL    HW1 6723   0.685   1.064   3.614 -0.5750 -1.9746  0.2898
 2196SOL    HW2 6724   0.670   1.029   3.761  1.2542  0.6651  1.1863
 2197SOL     OW 6725   1.458   1.364   0.409  0.1006  0.7471 -0.7570
 2197SOL    HW1 6726   1.544   1.389   0.445  0.0105 -0.0509  0.0467
 2197SOL    HW2 6727   1.479   1.299   0.342  0.0292 -1.1428  0.9764
 2198SOL     OW 6728   0.829   4.204   3.485 -0.4990 -0.3809 -0.1834
 2198SOL    HW1 6729   0.868   4.278   3.438 -1.4378 -0.8487 -1.7817
 2198SOL    HW2 6730   0.770   4.164   3.421  0.6674 -3.0940  0.3384
 2199SOL     OW 6731   0.837   2.466   3.874  0.3755  0.2769  0.2852
 2199SOL    HW1 6732   0.924   2.496   3.900 -0.3788  1.7514  1.2830
 2199SOL    HW2 6733   0.778   2.509   3.935 -1.1271  0.0349 -0.9288
 2200SOL     OW 6734   2.841   0.112   4.156  0.2343  0.4219 -0.0766
 2200SOL    HW1 6735   2.923   0.139   4.197  1.2092 -0.5639 -1.3044
 2200SOL    HW2 6736   2.828   0.021   4.184 -0.9791  0.8692  0.9036
 2201SOL     OW 6737   0.141   0.983   1.105 -0.4094  0.4897  0.1716
 2201SOL    HW1 6738   0.048   0.985   1.129 -0.3270 -0.6994  0.6550
 2201SOL    HW2 6739   0.185   1.020   1.181 -0.4221  0.1561  0.3438
 2202SOL     OW 6740   0.762   4.788   2.723  0.6936  0.5033 -0.1583
 2202SOL    HW1 6741   0.823   4.799   2.650 -0.5045 -0.1805 -1.3322
 2202SOL    HW2 6742   0.716   4.706   2.702  1.2947 -0.4836  2.1296
 2203SOL     OW 6743   0.819   3.203   1.335  0.3300 -0.2343 -0.2745
 2203SOL    HW1 6744   0.805   3.261   1.260 -1.0446 -0.2778 -0.0814
 2203SOL    HW2 6745   0.852   3.260   1.403  0.9261 -0.0627 -0.7029
 2204SOL     OW 6746   2.622   1.380   0.222  0.2343  0.6968 -0.2109
 2204SOL    HW1 6747   2.626   1.395   0.316  0.5488  0.9435 -0.2631
 2204SOL    HW2 6748   2.701   1.422   0.187  0.4300  0.0929 -0.5134
 2205SOL     OW 6749   1.670   3.563   2.083 -0.2195  0.0679 -0.1247
 2205SOL    HW1 6750   1.639   3.474   2.069  0.3463 -0.2591  0.6504
 2205SOL    HW2 6751   1.591   3.615   2.096 -0.6495 -0.0191 -2.0896
 2206SOL     OW 6752   1.092   4.359   0.228  0.2765 -0.2116  0.0802
 2206SOL    HW1 6753   1.044   4.373   0.310 -1.8038  0.9896 -1.2817
 2206SOL    HW2 6754   1.132   4.444   0.209 -1.4224  0.2898 -1.4508
 2207SOL     OW 6755   0.204   3.916   0.662  0.5114  0.0099  0.0473
 2207SOL    HW1 6756   0.226   3.823   0.669 -0.1496 -0.1653 -0.1096
 2207SOL    HW2 6757   0.114   3.916   0.630  0.6176  0.7113 -0.2473
 2208SOL     OW 6758   4.482   1.849   3.940 -0.9166  0.4150  0.4505
 2208SOL    HW1 6759   4.482   1.775   3.880 -1.1186 -0.2580  1.2654
 2208SOL    HW2 6760   4.431   1.916   3.895  1.2323  0.9480 -1.3299
 2209SOL     OW 6761   1.840   0.677   2.167 -0.1063 -0.0912 -0.1042
 2209SOL    HW1 6762   1.891   0.605   2.128  1.4452  1.7203 -1.6567
 2209SOL    HW2 6763   1.764   0.686   2.110  1.0201  1.0982 -1.4967
 2210SOL     OW 6764   4.648   3.655   3.376  0.5807 -0.5727 -0.2188
 2210SOL    HW1 6765   4.689   3.699   3.302  2.8376 -0.6690  0.8963
 2210SOL    HW2 6766   4.710   3.665   3.448 -2.0348  0.5744  2.0788
 2211SOL     OW 6767   4.520   1.159   1.151  0.3308 -0.0089  0.2186
 2211SOL    HW1 6768   4.525   1.156   1.247  1.7185 -0.3799  0.1538
 2211SOL    HW2 6769   4.517   1.067   1.125 -0.3067  0.0973 -0.0917
 2212SOL     OW 6770   4.300   3.976   2.777  0.0235  0.2040 -0.3228
 2212SOL    HW1 6771   4.383   3.937   2.806  0.7298  1.0201 -1.1503
 2212SOL    HW2 6772   4.241   3.967   2.851  0.4410 -1.5925 -0.1696
 2213SOL     OW 6773   1.923   1.819   5.004 -0.3766  0.1462 -0.8458
 2213SOL    HW1 6774   1.969   1.837   4.922  0.3536 -2.5428 -1.1373
 2213SOL    HW2 6775   1.980   1.854   5.072 -0.7571  1.9745 -1.4150
 2214SOL     OW 6776   1.499   2.344   2.755  0.0658  0.2527 -0.0872
 2214SOL    HW1 6777   1.580   2.358   2.803 -1.0363 -0.0946  2.0039
 2214SOL    HW2 6778   1.526   2.337   2.664  2.7301 -2.2968  0.7211
 2215SOL     OW 6779   3.298   3.853   1.093  0.6284 -0.5468 -0.0700
 2215SOL    HW1 6780   3.384   3.871   1.055  0.4256 -0.4629 -0.4999
 2215SOL    HW2 6781   3.281   3.927   1.151  1.3703 -1.1559  0.9603
 2216SOL     OW 6782   0.316   2.398   2.585 -0.1872  0.0659 -0.1222
 2216SOL    HW1 6783   0.298   2.467   2.649 -0.0920 -0.7134  0.7644
 2216SOL    HW2 6784   0.235   2.389   2.536 -0.1225  0.9730 -0.4291
 2217SOL     OW 6785   0.659   0.098   1.176  0.4731 -0.4961 -0.1853
 2217SOL    HW1 6786   0.716   0.023   1.159 -1.1033 -1.5886 -0.8212
 2217SOL    HW2 6787   0.606   0.106   1.097  0.1249  0.8615  0.1688
 2218SOL     OW 6788   2.916   1.952   2.086 -0.4080  0.2946  0.2575
 2218SOL    HW1 6789   2.835   1.958   2.138 -0.2849  2.2212  0.3139
 2218SOL    HW2 6790   2.985   1.941   2.151 -0.6023 -1.3752  0.2083
 2219SOL     OW 6791   1.125   0.012   4.856  0.5234 -0.4537  0.8396
 2219SOL    HW1 6792   1.035   0.038   4.877  0.4696 -0.8401  1.0957
 2219SOL    HW2 6793   1.163   0.090   4.816 -0.7139 -1.0271 -1.6967
 2220SOL     OW 6794   2.600   4.196   2.352 -0.2832  1.4221  0.1445
 2220SOL    HW1 6795   2.542   4.252   2.406 -1.2051  1.8797 -1.2649
 2220SOL    HW2 6796   2.688   4.222   2.378 -0.6877  1.7154  1.3415
 2221SOL     OW 6797   0.320   4.535   0.438  0.1364  0.0228 -0.3345
 2221SOL    HW1 6798   0.410   4.569   0.442 -0.0652  0.8541 -2.0747
 2221SOL    HW2 6799   0.285   4.570   0.356 -1.6188 -0.7105  0.0686
 2222SOL     OW 6800   0.241   3.057   1.950  0.2367  0.6278  0.1607
 2222SOL    HW1 6801   0.161   3.023   1.910 -0.5920  2.9477 -0.3580
 2222SOL    HW2 6802   0.210   3.111   2.023  1.2298  2.1595 -0.4889
 2223SOL     OW 6803   2.132   1.877   1.840 -0.7423  0.6206 -0.2979
 2223SOL    HW1 6804   2.188   1.800   1.829 -1.0434  0.1763  1.0415
 2223SOL    HW2 6805   2.178   1.947   1.794  1.9310  0.7390  2.2332
 2224SOL     OW 6806   3.039   1.607   0.836  0.1136  0.2822  0.3818
 2224SOL    HW1 6807   3.127   1.617   0.801  0.0688  0.9806  0.4606
 2224SOL    HW2 6808   3.012   1.519   0.810  0.0129  0.8335 -1.5054
 2225SOL     OW 6809   0.712   3.433   4.636 -0.5339 -0.5104  0.3533
 2225SOL    HW1 6810   0.688   3.372   4.706  1.5073 -0.1183  1.4926
 2225SOL    HW2 6811   0.714   3.380   4.557 -2.3054 -1.1045  0.6623
 2226SOL     OW 6812   0.903   0.550   1.576 -0.2076 -0.6052  0.3896
 2226SOL    HW1 6813   0.996   0.569   1.585 -0.0130 -1.1891 -0.2795
 2226SOL    HW2 6814   0.863   0.634   1.553  0.5506 -0.8169 -1.9348
 2227SOL     OW 6815   4.174   1.477   3.233 -0.0602 -0.3879  0.6269
 2227SOL    HW1 6816   4.267   1.478   3.255  0.5702 -0.4439 -1.7897
 2227SOL    HW2 6817   4.149   1.569   3.231  0.2922 -0.2987  0.0227
 2228SOL     OW 6818   2.822   3.850   1.801  1.3981 -0.3078  0.3747
 2228SOL    HW1 6819   2.865   3.767   1.825  1.5050 -0.4746 -0.3706
 2228SOL    HW2 6820   2.834   3.906   1.878  0.8341 -1.1671  1.1090
 2229SOL     OW 6821   1.954   3.389   4.676 -0.8162  0.2133 -0.0819
 2229SOL    HW1 6822   2.004   3.402   4.757  1.2465  1.8581 -1.5199
 2229SOL    HW2 6823   1.890   3.459   4.677 -0.6809  0.3370  0.0425
 2230SOL     OW 6824   0.936   3.941   2.294 -0.5580  0.0060  0.5813
 2230SOL    HW1 6825   0.948   4.031   2.325 -1.1028  1.5889 -3.2171
 2230SOL    HW2 6826   0.983   3.887   2.356  1.2966  3.0959  2.0780
 2231SOL     OW 6827   2.220   2.021   2.320 -0.3451  0.5766  0.1402
 2231SOL    HW1 6828   2.231   1.947   2.260 -1.9034 -0.2611  0.8090
 2231SOL    HW2 6829   2.199   2.095   2.262  0.4210  0.3221 -0.4851
 2232SOL     OW 6830   3.499   4.075   1.086  0.4824 -0.0586  0.0213
 2232SOL    HW1 6831   3.454   4.156   1.110  1.7355  1.0250 -1.1685
 2232SOL    HW2 6832   3.592   4.098   1.082  1.0367 -1.8860  0.9633
 2233SOL     OW 6833   2.234   2.824   2.073  0.3371 -0.1896 -0.2119
 2233SOL    HW1 6834   2.307   2.886   2.078  0.5362 -0.4691  0.6648
 2233SOL    HW2 6835   2.202   2.818   2.163  2.1677 -3.5033  0.3804
 2234SOL     OW 6836   3.194   1.616   3.300 -0.8991  0.3805  0.2244
 2234SOL    HW1 6837   3.141   1.649   3.227  1.1711  1.4520 -0.9027
 2234SOL    HW2 6838   3.173   1.523   3.305 -0.3355  0.0223 -2.5036
 2235SOL     OW 6839   4.007   4.230   1.665  0.1440 -0.0734  0.6298
 2235SOL    HW1 6840   4.010   4.200   1.756 -1.8835  1.5818  1.3139
 2235SOL    HW2 6841   4.067   4.305   1.663 -0.5025  0.4632  0.8717
 2236SOL     OW 6842   0.340   0.358   3.502  0.8895  0.6102  0.0045
 2236SOL    HW1 6843   0.433   0.349   3.523  0.3562  0.9940  3.1195
 2236SOL    HW2 6844   0.295   0.328   3.582 -1.5706  2.9817 -0.3481
 2237SOL     OW 6845   3.231   4.349   0.164 -0.2772  0.0025  0.6851
 2237SOL    HW1 6846   3.266   4.433   0.193  0.9401 -0.2300 -0.0389
 2237SOL    HW2 6847   3.288   4.323   0.092 -2.1173 -0.2902 -0.7439
 2238SOL     OW 6848   0.501   2.212   4.607 -0.1683  0.4738 -0.4504
 2238SOL    HW1 6849   0.515   2.118   4.614 -0.1698  0.3882 -1.4462
 2238SOL    HW2 6850   0.433   2.221   4.541 -0.4466  1.1643 -0.0814
 2239SOL     OW 6851   2.427   1.928   3.304 -0.0763 -0.0052 -0.5992
 2239SOL    HW1 6852   2.460   2.012   3.274 -1.7154  0.3289 -1.5959
 2239SOL    HW2 6853   2.333   1.931   3.287 -0.4862 -1.3098  1.1079
 2240SOL     OW 6854   4.776   0.532   4.069  0.3001 -0.6921 -1.3774
 2240SOL    HW1 6855   4.692   0.568   4.097  1.2718  0.4375  0.2170
 2240SOL    HW2 6856   4.803   0.475   4.141  1.3736 -0.2640 -1.4247
 2241SOL     OW 6857   4.352   3.298   2.520 -0.3758  0.2559 -0.0754
 2241SOL    HW1 6858   4.364   3.390   2.499  0.2542  0.0145 -0.8096
 2241SOL    HW2 6859   4.265   3.293   2.560  0.2172  1.4065  1.4424
 2242SOL     OW 6860   3.852   4.922   2.023 -0.4691 -0.6270  0.0818
 2242SOL    HW1 6861   3.863   4.836   1.980 -1.7251 -0.8796  0.2344
 2242SOL    HW2 6862   3.808   4.902   2.105  0.8897 -0.0153  0.9777
 2243SOL     OW 6863   0.743   2.441  -0.003 -0.5018  0.0620 -0.1972
 2243SOL    HW1 6864   0.702   2.472   0.078 -3.2843  1.4924 -2.0306
 2243SOL    HW2 6865   0.675   2.390  -0.046  0.6159  0.0788 -2.0595
 2244SOL     OW 6866   0.602   4.036   3.408 -0.1440 -0.0860 -0.5953
 2244SOL    HW1 6867   0.528   4.042   3.469 -0.3268 -1.0626 -0.7004
 2244SOL    HW2 6868   0.578   3.965   3.349  0.1733  0.6396 -1.6266
 2245SOL     OW 6869   3.054   2.163   0.633 -0.2158  0.2927 -0.8176
 2245SOL    HW1 6870   2.982   2.100   0.629  0.2426 -0.3048 -0.0131
 2245SOL    HW2 6871   3.014   2.247   0.614 -1.4587  0.2077  1.2456
 2246SOL     OW 6872   0.178   4.665   3.744  0.8044 -0.0486 -0.5051
 2246SOL    HW1 6873   0.152   4.597   3.807  2.7864  1.1632  1.7883
 2246SOL    HW2 6874   0.121   4.651   3.669 -3.1017 -0.4114  2.2448
 2247SOL     OW 6875   0.954   4.355   0.519 -0.2446  0.2834 -0.0609
 2247SOL    HW1 6876   1.044   4.363   0.550 -0.5621  0.8766  0.7408
 2247SOL    HW2 6877   0.920   4.278   0.564 -0.7207  1.1729  1.1353
 2248SOL     OW 6878   4.206   3.079   2.340  0.3001 -0.7875 -0.2384
 2248SOL    HW1 6879   4.210   3.172   2.317  0.4493 -0.7932 -0.2383
 2248SOL    HW2 6880   4.174   3.035   2.261  0.8054 -0.8072 -0.4353
 2249SOL     OW 6881   1.132   1.029   3.475 -0.1186  0.0828  0.2576
 2249SOL    HW1 6882   1.218   1.069   3.489 -1.1048  1.3989  3.8314
 2249SOL    HW2 6883   1.147   0.936   3.493  0.6913  0.1921  0.2189
 2250SOL     OW 6884   2.327   0.420   1.177  0.8796  0.2432  0.1704
 2250SOL    HW1 6885   2.338   0.333   1.216 -0.9583  0.3187  0.9546
 2250SOL    HW2 6886   2.313   0.403   1.084 -1.1325 -0.4858  0.5553
 2251SOL     OW 6887   5.059   2.395   2.493 -0.2025 -0.3034 -0.5817
 2251SOL    HW1 6888   4.979   2.436   2.525 -1.4049 -2.7070 -0.2675
 2251SOL    HW2 6889   5.051   2.398   2.398  0.2405  1.0340 -0.6036
 2252SOL     OW 6890   3.236   1.871   3.468 -0.6085 -0.1247  0.0804
 2252SOL    HW1 6891   3.259   1.806   3.402 -0.9646 -1.1749  0.9663
 2252SOL    HW2 6892   3.267   1.834   3.551 -3.8682 -0.8860  1.1289
 2253SOL     OW 6893   0.335   0.066   2.182  0.1559  0.1184 -0.1383
 2253SOL    HW1 6894   0.336   0.135   2.116 -2.3029 -0.0201 -0.4092
 2253SOL    HW2 6895   0.260   0.011   2.159  0.8674 -1.5249  1.2076
 2254SOL     OW 6896   3.102   5.011   1.615  0.3682 -0.0322  0.4458
 2254SOL    HW1 6897   3.063   5.001   1.702 -0.2875 -0.6643  0.0847
 2254SOL    HW2 6898   3.043   5.071   1.569  1.1728  0.9945  0.6945
 2255SOL     OW 6899   0.292   4.435   2.680 -0.0572 -0.5352 -0.0455
 2255SOL    HW1 6900   0.342   4.424   2.761  1.0805 -0.2742 -0.6862
 2255SOL    HW2 6901   0.358   4.460   2.615 -1.1357  0.5756 -0.7572
 2256SOL     OW 6902   4.486   0.498   3.305 -0.4938  0.1951 -0.0918
 2256SOL    HW1 6903   4.536   0.417   3.317 -3.7051 -1.7367  1.5501
 2256SOL    HW2 6904   4.430   0.480   3.230 -1.0946  0.9893  0.1583
 2257SOL     OW 6905   3.333   0.793   2.189 -0.0931 -0.1291  0.8138
 2257SOL    HW1 6906   3.263   0.734   2.219 -1.0080 -1.5103 -3.3246
 2257SOL    HW2 6907   3.366   0.752   2.109  1.2564  3.5574 -0.7406
 2258SOL     OW 6908   4.903   1.975   0.277  0.5093  0.3432  0.2503
 2258SOL    HW1 6909   4.943   1.891   0.252 -1.2258 -0.7472  0.9203
 2258SOL    HW2 6910   4.812   1.952   0.299 -0.0170  2.4253  0.4078
 2259SOL     OW 6911   1.210   0.630   0.819  0.8359 -0.2875 -0.3496
 2259SOL    HW1 6912   1.209   0.723   0.799  0.3851 -0.5415 -1.6041
 2259SOL    HW2 6913   1.217   0.587   0.733  3.7219 -1.3754  0.2875
 2260SOL     OW 6914   2.475   0.698   2.026 -0.5941  0.2710  0.1099
 2260SOL    HW1 6915   2.537   0.752   1.977 -0.2219  1.7575  2.0555
 2260SOL    HW2 6916   2.516   0.612   2.032  0.4506  0.7402 -0.1579
 2261SOL     OW 6917   4.661   3.889   0.477 -0.2933  0.1630 -0.0592
 2261SOL    HW1 6918   4.728   3.820   0.483  0.5787  0.8970 -0.9402
 2261SOL    HW2 6919   4.711   3.971   0.482 -1.1891  0.7296 -0.1769
 2262SOL     OW 6920   4.245   3.048   3.791 -0.7321  0.1650 -0.2526
 2262SOL    HW1 6921   4.310   3.071   3.857  0.1436  0.1060 -1.0738
 2262SOL    HW2 6922   4.171   3.014   3.841 -0.3306  0.6851  0.7248
 2263SOL     OW 6923   0.029   2.025   2.421  0.3171 -0.3960 -0.7396
 2263SOL    HW1 6924  -0.039   2.031   2.489  2.0836  0.4658  1.0495
 2263SOL    HW2 6925   0.105   2.067   2.460  1.5246 -0.1808 -3.1740
 2264SOL     OW 6926   2.209   4.481   4.126 -0.3498 -0.8729 -0.2079
 2264SOL    HW1 6927   2.143   4.450   4.064 -1.6578  0.9408  0.2143
 2264SOL    HW2 6928   2.166   4.551   4.175  1.8710  0.3886  0.0935
 2265SOL     OW 6929   0.748   4.514   2.240  0.5769 -0.0726 -0.0159
 2265SOL    HW1 6930   0.699   4.596   2.252 -0.7005 -0.8829  0.4094
 2265SOL    HW2 6931   0.782   4.495   2.328  1.8882  0.5957 -0.3469
 2266SOL     OW 6932   1.149   2.252   2.669 -0.0985  0.0618 -0.2538
 2266SOL    HW1 6933   1.082   2.308   2.630  0.9872  0.5306 -1.5165
 2266SOL    HW2 6934   1.165   2.185   2.603  1.2552  0.4319 -0.3247
 2267SOL     OW 6935   1.107   2.689   0.328  0.1973  1.2952  0.2003
 2267SOL    HW1 6936   1.129   2.659   0.240  0.7883 -0.8359  1.0177
 2267SOL    HW2 6937   1.192   2.708   0.369 -0.1091  3.0140  0.1068
 2268SOL     OW 6938   4.322   4.427   2.181 -0.4075  0.5182  0.3547
 2268SOL    HW1 6939   4.240   4.385   2.205  0.3762 -0.0487  2.2442
 2268SOL    HW2 6940   4.297   4.514   2.152 -1.6967  0.2601  0.6224
 2269SOL     OW 6941   0.687   2.158  -0.003  0.1697 -0.0256 -0.0543
 2269SOL    HW1 6942   0.781   2.154   0.018  0.1364 -1.8702 -0.1194
 2269SOL    HW2 6943   0.646   2.185   0.079  0.5761 -1.4018  0.6346
 2270SOL     OW 6944   0.774   2.478   3.585 -0.0687 -0.0001  0.3959
 2270SOL    HW1 6945   0.849   2.452   3.531  0.4791 -0.1067  1.1868
 2270SOL    HW2 6946   0.807   2.472   3.675 -1.4712 -1.4462  0.8478
 2271SOL     OW 6947   3.016   4.525   1.516 -0.4916 -0.4237  0.1201
 2271SOL    HW1 6948   2.957   4.577   1.570  1.1366  0.7272  0.8583
 2271SOL    HW2 6949   3.009   4.436   1.552 -0.9224 -0.0695  0.9333
 2272SOL     OW 6950   2.948   3.076   0.220 -0.6217  0.0105 -0.4094
 2272SOL    HW1 6951   2.881   3.140   0.194 -1.4097 -0.3728  0.6204
 2272SOL    HW2 6952   2.990   3.051   0.137 -0.9995  1.0762 -0.9465
 2273SOL     OW 6953   3.365   1.202   1.530 -0.1532  0.0691 -0.1868
 2273SOL    HW1 6954   3.454   1.175   1.554  0.0860  0.4598 -0.6046
 2273SOL    HW2 6955   3.339   1.262   1.600  0.1405  0.4017 -0.3573
 2274SOL     OW 6956   0.310   4.471   4.802 -0.1787 -0.6111  0.3809
 2274SOL    HW1 6957   0.221   4.477   4.834  0.6873 -0.9410  3.0769
 2274SOL    HW2 6958   0.324   4.553   4.754 -1.3347  0.3093  1.5715
 2275SOL     OW 6959   2.702   3.133   4.590  0.0943 -0.5959  0.5300
 2275SOL    HW1 6960   2.754   3.212   4.601  0.5092 -0.7484 -0.3066
 2275SOL    HW2 6961   2.733   3.074   4.659  1.1595 -0.7556 -0.0792
 2276SOL     OW 6962   1.806   4.203   2.430  0.3994 -0.4605 -0.1263
 2276SOL    HW1 6963   1.791   4.110   2.448  0.9181 -0.1637  2.1553
 2276SOL    HW2 6964   1.897   4.209   2.403  0.1528 -0.6833 -1.0416
 2277SOL     OW 6965   1.498   0.300   4.649 -0.6288  0.0903 -0.2915
 2277SOL    HW1 6966   1.578   0.249   4.657 -1.3120 -1.0445 -0.5301
 2277SOL    HW2 6967   1.528   0.391   4.642  0.5695 -0.1820  0.9179
 2278SOL     OW 6968   4.383   2.468   3.933  0.1400 -0.3057  0.1371
 2278SOL    HW1 6969   4.322   2.404   3.897  0.7684 -0.8780  0.0647
 2278SOL    HW2 6970   4.426   2.506   3.856  0.3617 -0.3949  0.2164
 2279SOL     OW 6971   4.899   2.235   3.962 -0.0902 -0.3899 -0.4261
 2279SOL    HW1 6972   4.941   2.320   3.968  1.2060 -1.0995  3.9807
 2279SOL    HW2 6973   4.805   2.255   3.954 -0.1252  1.6840  3.0851
 2280SOL     OW 6974   4.625   4.947   3.048 -0.0527  0.0247 -0.1084
 2280SOL    HW1 6975   4.566   4.984   2.982 -1.9891  0.8583  1.9758
 2280SOL    HW2 6976   4.632   5.014   3.115 -1.3488 -2.1560  2.4272
 2281SOL     OW 6977   4.390   0.549   0.331 -0.1554  0.3946 -0.5889
 2281SOL    HW1 6978   4.441   0.510   0.259  2.0341  1.1654  0.4324
 2281SOL    HW2 6979   4.392   0.482   0.400 -2.3031 -0.3679 -1.1852
 2282SOL     OW 6980   0.756   0.603   3.385 -0.0095 -0.6806  0.3698
 2282SOL    HW1 6981   0.838   0.652   3.387 -0.4606  0.0586  0.9819
 2282SOL    HW2 6982   0.770   0.530   3.446  0.4197 -0.9585 -0.0425
 2283SOL     OW 6983   0.309   2.748   4.195 -0.5361  0.0598 -0.3772
 2283SOL    HW1 6984   0.271   2.791   4.118  2.2099  1.3345 -1.1294
 2283SOL    HW2 6985   0.342   2.665   4.163  0.9240  0.7399 -0.7478
 2284SOL     OW 6986   0.449   4.178   0.307  0.3111  0.2538 -0.4512
 2284SOL    HW1 6987   0.413   4.108   0.252 -1.4388  0.0410  0.8468
 2284SOL    HW2 6988   0.450   4.140   0.395  0.7529  1.3745  0.0474
 2285SOL     OW 6989   2.550   3.342   2.966  0.0932  0.8746  0.2809
 2285SOL    HW1 6990   2.465   3.308   2.993  0.8981 -0.4773  1.2623
 2285SOL    HW2 6991   2.576   3.288   2.892  0.3820  0.8610  0.3905
 2286SOL     OW 6992   3.154   1.371   0.032 -0.4231  0.0037  0.0868
 2286SOL    HW1 6993   3.243   1.405   0.017 -0.3088 -0.0944  0.5088
 2286SOL    HW2 6994   3.165   1.276   0.031 -0.4691 -0.0073  0.4198
 2287SOL     OW 6995   4.541   2.219   1.636  0.1682  0.4867 -0.2524
 2287SOL    HW1 6996   4.510   2.132   1.612 -1.7814  1.4326 -1.4648
 2287SOL    HW2 6997   4.505   2.234   1.724  1.3683 -0.2792  0.3962
 2288SOL     OW 6998   0.522   2.710   3.836  0.3706 -0.5355 -0.9561
 2288SOL    HW1 6999   0.484   2.789   3.798 -0.0608 -0.2945 -0.0659
 2288SOL    HW2 7000   0.603   2.696   3.787  0.9388  1.0144 -0.5052
 2289SOL     OW 7001   4.686   1.830   2.252 -0.3452  0.4882  0.7103
 2289SOL    HW1 7002   4.767   1.809   2.298  0.2861  0.0091 -0.5509
 2289SOL    HW2 7003   4.626   1.758   2.275 -0.5619  1.0460  1.9530
 2290SOL     OW 7004   2.980   1.180   3.747 -0.1066  0.0196  0.5274
 2290SOL    HW1 7005   3.052   1.120   3.766 -0.9453 -1.0483  0.3969
 2290SOL    HW2 7006   2.986   1.198   3.654  0.1476  0.1514  0.5684
 2291SOL     OW 7007   4.834   2.119   4.878 -0.0518  0.0596 -0.2390
 2291SOL    HW1 7008   4.793   2.205   4.870 -1.1647 -0.6327 -2.9598
 2291SOL    HW2 7009   4.905   2.133   4.941  0.5269  3.2619 -1.4009
 2292SOL     OW 7010   1.002   2.596   0.806  0.8260  0.1329  0.2615
 2292SOL    HW1 7011   0.966   2.677   0.769  0.5244  0.2388  0.7881
 2292SOL    HW2 7012   1.048   2.624   0.884 -1.3343 -0.4732  1.8410
 2293SOL     OW 7013   2.885   2.516   4.760 -0.4602  0.3331 -0.2662
 2293SOL    HW1 7014   2.800   2.560   4.758 -0.8750 -0.4311  0.1835
 2293SOL    HW2 7015   2.877   2.445   4.697  0.1459  0.7691 -0.8522
 2294SOL     OW 7016   1.602   2.311   1.035  0.3792  0.2329 -0.3640
 2294SOL    HW1 7017   1.617   2.319   1.129  0.7173  0.3933 -0.4310
 2294SOL    HW2 7018   1.510   2.284   1.028  0.6382 -0.7873  0.0495
 2295SOL     OW 7019   4.139   0.907   3.726 -0.1544 -0.2812 -0.3674
 2295SOL    HW1 7020   4.057   0.956   3.718  2.8455  5.6247 -0.7640
 2295SOL    HW2 7021   4.154   0.871   3.639 -2.4699 -2.1164 -0.1032
 2296SOL     OW 7022   2.585   1.564   3.322 -0.5013  0.3693  0.1502
 2296SOL    HW1 7023   2.510   1.558   3.263 -0.4476 -0.2860  0.1429
 2296SOL    HW2 7024   2.646   1.625   3.279 -0.8550  0.5967 -0.0272
 2297SOL     OW 7025   2.235   2.030   0.559 -0.1162  0.2634 -0.6881
 2297SOL    HW1 7026   2.291   1.955   0.543  2.1820  0.9251  2.9739
 2297SOL    HW2 7027   2.286   2.105   0.528  0.4173  0.7452  1.2427
 2298SOL     OW 7028   1.227   4.621   1.158 -1.0137 -0.2922 -0.5771
 2298SOL    HW1 7029   1.158   4.571   1.115 -1.1222  1.1640 -2.2303
 2298SOL    HW2 7030   1.236   4.700   1.105  2.5203 -0.7658 -0.9627
 2299SOL     OW 7031   0.969   0.513   4.511  0.7106 -0.2214 -0.4739
 2299SOL    HW1 7032   0.881   0.536   4.483  0.9761 -0.7383 -1.8552
 2299SOL    HW2 7033   0.957   0.439   4.571  0.1906 -0.0074 -0.3106
 2300SOL     OW 7034   3.454   0.483   0.572  0.0910  0.2961 -0.1748
 2300SOL    HW1 7035   3.507   0.468   0.493 -0.1321 -0.6162 -0.1650
 2300SOL    HW2 7036   3.487   0.419   0.635 -0.1402  0.6112  0.2683
 2301SOL     OW 7037   2.340   3.734   1.285 -0.3927 -0.4052  0.5042
 2301SOL    HW1 7038   2.370   3.744   1.195  0.8491 -2.1324  0.6753
 2301SOL    HW2 7039   2.352   3.821   1.324  0.7133 -0.0569 -0.5430
 2302SOL     OW 7040   4.016   1.355   3.510  0.3005 -0.2514  0.5935
 2302SOL    HW1 7041   3.990   1.414   3.439  1.8392 -1.9324 -1.5169
 2302SOL    HW2 7042   3.997   1.267   3.476  0.8838 -1.1081  2.3776
 2303SOL     OW 7043   0.277   3.039   3.853 -0.2134  0.2598  0.0915
 2303SOL    HW1 7044   0.307   3.053   3.942  2.8965  0.5217 -0.8826
 2303SOL    HW2 7045   0.229   2.957   3.857 -0.1359  0.2638  1.9942
 2304SOL     OW 7046   4.396   0.310   1.615 -0.0178 -0.1601  0.1982
 2304SOL    HW1 7047   4.333   0.340   1.549  0.0967  0.2666  0.2799
 2304SOL    HW2 7048   4.481   0.340   1.582  0.2656 -1.5563 -0.3927
 2305SOL     OW 7049   3.077   3.267   0.984 -0.2462  0.0666  0.6401
 2305SOL    HW1 7050   3.022   3.248   1.060  0.2856  1.8015  1.5155
 2305SOL    HW2 7051   3.162   3.290   1.022  1.1638 -2.5334 -0.6766
 2306SOL     OW 7052   0.897   4.269   4.700  0.0768  0.3702 -0.0110
 2306SOL    HW1 7053   0.845   4.194   4.728 -0.0765  0.4019 -0.2037
 2306SOL    HW2 7054   0.851   4.346   4.735 -1.1963  0.5449 -1.9085
 2307SOL     OW 7055   0.254   1.551   0.434  0.3924  0.5411  0.0206
 2307SOL    HW1 7056   0.177   1.560   0.490  0.3465 -0.8319  0.2258
 2307SOL    HW2 7057   0.325   1.591   0.484  0.1903  0.0563  0.7167
 2308SOL     OW 7058   2.278   0.385   3.688 -0.3800  0.2515  0.3727
 2308SOL    HW1 7059   2.199   0.360   3.735 -0.9808  0.0462 -0.7213
 2308SOL    HW2 7060   2.259   0.366   3.596  0.5489  1.1905 -0.0339
 2309SOL     OW 7061   3.118   2.727   0.740 -0.3698 -0.4238 -0.1484
 2309SOL    HW1 7062   3.040   2.775   0.712 -0.9264 -1.0637  0.2726
 2309SOL    HW2 7063   3.092   2.683   0.821  0.3591 -0.8374 -0.1249
 2310SOL     OW 7064   1.712   3.276   1.990 -0.3763 -0.1389  0.7197
 2310SOL    HW1 7065   1.762   3.206   2.032  0.3152 -1.0144 -1.3726
 2310SOL    HW2 7066   1.756   3.288   1.905 -2.9410 -0.0778 -0.7123
 2311SOL     OW 7067   1.580   1.218   3.969  0.1403  0.2279  0.4354
 2311SOL    HW1 7068   1.513   1.246   4.031 -0.3151 -0.3363  0.2203
 2311SOL    HW2 7069   1.622   1.143   4.012  1.2727  1.1563  0.9665
 2312SOL     OW 7070   2.679   0.970   0.926 -0.1817  0.9893  0.2393
 2312SOL    HW1 7071   2.620   0.954   1.000  0.2864  0.5863  0.5365
 2312SOL    HW2 7072   2.764   0.986   0.967  0.0075  1.1182 -0.2008
 2313SOL     OW 7073   3.568   1.232   2.865  0.1173  0.6488 -0.7251
 2313SOL    HW1 7074   3.546   1.309   2.918 -1.8098 -1.9815  2.7520
 2313SOL    HW2 7075   3.497   1.224   2.802 -0.7472  0.6661  0.2296
 2314SOL     OW 7076   0.109   1.561   1.046 -0.2497 -0.4934 -0.3503
 2314SOL    HW1 7077   0.099   1.473   1.010  0.6004 -0.4097 -0.8090
 2314SOL    HW2 7078   0.203   1.570   1.060 -0.3753  0.2059  0.0507
 2315SOL     OW 7079   2.757   1.380   1.596 -0.8297  0.7222  0.0011
 2315SOL    HW1 7080   2.685   1.440   1.614 -0.1045  1.8491 -0.6894
 2315SOL    HW2 7081   2.765   1.380   1.501  1.2442  2.1131  0.0990
 2316SOL     OW 7082   0.359   3.747   2.017  0.3012  0.0349 -0.2960
 2316SOL    HW1 7083   0.345   3.678   1.952 -0.0303  0.5981 -0.8274
 2316SOL    HW2 7084   0.372   3.699   2.099 -0.0556 -0.6598 -0.6323
 2317SOL     OW 7085   1.003   4.215   0.919 -0.8614  0.1123 -0.1023
 2317SOL    HW1 7086   0.942   4.288   0.930 -1.7987 -0.2803 -2.2991
 2317SOL    HW2 7087   0.986   4.158   0.994 -1.7902  0.9589  0.3521
 2318SOL     OW 7088   2.015   2.882   3.371  0.5166  0.8139 -0.0774
 2318SOL    HW1 7089   2.101   2.854   3.339  0.6412  1.7895 -0.6456
 2318SOL    HW2 7090   1.953   2.828   3.322  0.8066 -0.8289  1.2793
 2319SOL     OW 7091   0.848   2.214   4.300 -0.2031  0.2668 -0.2513
 2319SOL    HW1 7092   0.896   2.147   4.251  0.5492  0.5917  0.0269
 2319SOL    HW2 7093   0.828   2.173   4.384  1.1095  0.6889  0.2991
 2320SOL     OW 7094   4.397   0.739   2.130 -0.5514 -0.2940 -0.2039
 2320SOL    HW1 7095   4.440   0.656   2.148  0.0146 -0.0255 -0.3083
 2320SOL    HW2 7096   4.329   0.745   2.198 -0.3070 -0.6320  0.0759
 2321SOL     OW 7097   4.475   2.295   0.168  0.5715 -0.3675  0.1376
 2321SOL    HW1 7098   4.566   2.298   0.197  0.6949 -1.4719 -0.0788
 2321SOL    HW2 7099   4.467   2.210   0.124 -0.2412  0.2427 -0.9331
 2322SOL     OW 7100   4.375   2.342   2.752  0.3717  0.6820  0.2196
 2322SOL    HW1 7101   4.431   2.392   2.692  2.1091 -1.2999  0.0652
 2322SOL    HW2 7102   4.380   2.252   2.719 -1.4858  0.1260  1.3197
 2323SOL     OW 7103   1.016   1.008   1.506  0.2695 -0.2173 -0.6233
 2323SOL    HW1 7104   1.003   0.934   1.447 -0.9832  0.2718 -0.9802
 2323SOL    HW2 7105   1.090   0.982   1.561  0.1101 -1.5531 -1.0217
 2324SOL     OW 7106   3.149   4.374   3.024  0.3281  0.3884 -0.2765
 2324SOL    HW1 7107   3.165   4.282   3.046 -2.4196  0.1093  0.8818
 2324SOL    HW2 7108   3.146   4.418   3.109  2.8595  1.8942 -0.8498
 2325SOL     OW 7109   4.819   3.464   2.746  0.0119  0.0685  0.5319
 2325SOL    HW1 7110   4.810   3.369   2.745  3.1342 -0.3512 -0.8807
 2325SOL    HW2 7111   4.859   3.483   2.832 -0.4590  0.0856  0.7477
 2326SOL     OW 7112   2.705   2.933   3.644  0.0710  0.2216  0.1700
 2326SOL    HW1 7113   2.784   2.927   3.590 -1.2186  0.5834 -1.8834
 2326SOL    HW2 7114   2.664   3.015   3.616 -1.9965 -0.8959 -0.2572
 2327SOL     OW 7115   3.694   4.746   1.718 -0.0005  0.5659 -0.6415
 2327SOL    HW1 7116   3.710   4.800   1.641  1.7099 -1.0997 -1.5495
 2327SOL    HW2 7117   3.599   4.748   1.731 -0.8039 -1.5367 -4.7054
 2328SOL     OW 7118   1.741   3.995   0.742  0.5239 -0.3347  0.1449
 2328SOL    HW1 7119   1.796   4.072   0.727 -0.1794  0.3105  0.7959
 2328SOL    HW2 7120   1.796   3.936   0.792 -0.1839  1.4708  3.3450
 2329SOL     OW 7121   0.049   2.346   1.002 -0.9269 -0.7696  0.4578
 2329SOL    HW1 7122  -0.028   2.317   1.053 -1.0005 -2.2305 -0.4183
 2329SOL    HW2 7123   0.111   2.376   1.068 -1.2169 -2.1312  1.3994
 2330SOL     OW 7124   2.970   2.430   0.625  0.6219  0.4544  0.6409
 2330SOL    HW1 7125   2.940   2.457   0.538 -1.0689 -0.8971  0.7457
 2330SOL    HW2 7126   2.954   2.506   0.680 -0.1429  0.6817  0.1317
 2331SOL     OW 7127   4.344   0.978   3.961 -0.4558  0.2162  0.1738
 2331SOL    HW1 7128   4.406   1.031   4.013 -1.2790  0.0440  1.3748
 2331SOL    HW2 7129   4.274   1.039   3.939 -0.1911  0.2440 -0.6283
 2332SOL     OW 7130   2.126   0.628   0.740 -0.2136  0.2668 -0.9498
 2332SOL    HW1 7131   2.064   0.586   0.800 -0.1365 -0.4809 -1.3851
 2332SOL    HW2 7132   2.193   0.666   0.797 -1.3128  1.5371 -0.4354
 2333SOL     OW 7133   0.631   2.825   1.606  0.2487 -0.3597 -0.5869
 2333SOL    HW1 7134   0.588   2.869   1.679 -2.2939 -3.0382 -0.2776
 2333SOL    HW2 7135   0.609   2.878   1.530  0.1986  0.7318  0.1707
 2334SOL     OW 7136   2.928   0.333   3.300  0.1834  0.4754  0.0537
 2334SOL    HW1 7137   3.016   0.313   3.267 -0.6462 -0.6313 -1.6188
 2334SOL    HW2 7138   2.869   0.300   3.232 -1.5461  0.9318  1.2770
 2335SOL     OW 7139   3.944   3.771   5.026 -0.5024 -0.0258 -0.1891
 2335SOL    HW1 7140   4.039   3.783   5.028 -0.8053  3.0457 -0.2289
 2335SOL    HW2 7141   3.919   3.792   4.936 -1.2140 -1.4636 -0.3643
 2336SOL     OW 7142   3.203   2.135   3.743 -0.1675 -0.8784 -0.2758
 2336SOL    HW1 7143   3.132   2.081   3.778 -0.6514 -0.1040 -0.0266
 2336SOL    HW2 7144   3.170   2.225   3.749  1.5181 -0.3117  1.5453
 2337SOL     OW 7145   0.211   0.668  -0.024 -0.7800  0.1139  0.6276
 2337SOL    HW1 7146   0.135   0.718   0.006 -0.3691  0.3258  1.3428
 2337SOL    HW2 7147   0.237   0.616   0.052  0.5397  0.9735  0.8064
 2338SOL     OW 7148   2.613   1.694   1.979  0.4781 -0.1726 -0.0687
 2338SOL    HW1 7149   2.671   1.619   1.992  0.8919 -0.1339 -1.5202
 2338SOL    HW2 7150   2.668   1.771   1.996  0.4180 -0.1699  0.1141
 2339SOL     OW 7151   4.312   0.489   3.902 -0.0577 -0.4545 -0.5974
 2339SOL    HW1 7152   4.400   0.475   3.937  0.6939 -2.1966 -2.8909
 2339SOL    HW2 7153   4.308   0.583   3.885  0.3129  0.0860  1.9820
 2340SOL     OW 7154   1.949   2.572   2.821 -0.0323  1.0702  0.4067
 2340SOL    HW1 7155   1.986   2.608   2.902 -1.3219  0.1987  1.4221
 2340SOL    HW2 7156   2.018   2.516   2.786 -0.0935 -0.0174  1.9189
 2341SOL     OW 7157   4.775   0.910   3.375 -0.2785  0.5931  0.4151
 2341SOL    HW1 7158   4.778   0.980   3.440 -0.8210  1.3452 -0.3377
 2341SOL    HW2 7159   4.681   0.899   3.357 -0.3573 -1.6518  1.8928
 2342SOL     OW 7160   4.446   4.882   3.850  0.3146  0.0830 -0.5168
 2342SOL    HW1 7161   4.517   4.820   3.830 -0.0431 -0.0827 -1.3213
 2342SOL    HW2 7162   4.407   4.848   3.930 -0.1517 -0.9961 -1.1794
 2343SOL     OW 7163   0.827   1.827   2.097 -0.0094 -0.0457 -0.6255
 2343SOL    HW1 7164   0.874   1.872   2.026 -2.5558 -0.9827 -3.1040
 2343SOL    HW2 7165   0.814   1.895   2.163  1.5810  1.1643 -1.4562
 2344SOL     OW 7166   0.479   2.108   2.929 -0.7579 -0.1750 -0.1032
 2344SOL    HW1 7167   0.468   2.202   2.920 -1.6084 -0.2778 -0.2290
 2344SOL    HW2 7168   0.405   2.080   2.982  0.8443 -0.4430  2.1388
 2345SOL     OW 7169   2.616   0.260   3.903 -0.0544  0.2929 -0.1648
 2345SOL    HW1 7170   2.650   0.171   3.896 -0.4725  0.1430 -0.2845
 2345SOL    HW2 7171   2.610   0.292   3.813 -2.3135 -0.4724 -0.3406
 2346SOL     OW 7172   0.601   2.415   1.815 -0.3960  0.2398 -0.0021
 2346SOL    HW1 7173   0.534   2.347   1.815 -0.7301  0.5657  0.1452
 2346SOL    HW2 7174   0.684   2.368   1.828 -0.8152  0.0394  2.2214
 2347SOL     OW 7175   4.966   3.122   3.881  0.0635 -0.2419  0.1469
 2347SOL    HW1 7176   5.027   3.072   3.935  1.6167  2.6937  1.3446
 2347SOL    HW2 7177   4.938   3.195   3.937  0.4681  2.0550 -2.4073
 2348SOL     OW 7178   3.210   0.714   2.626 -0.2774 -0.0668  0.7273
 2348SOL    HW1 7179   3.273   0.771   2.581 -1.2434  0.4954  0.0412
 2348SOL    HW2 7180   3.223   0.733   2.719  0.7029 -0.1165  0.6096
 2349SOL     OW 7181   0.884   0.113   1.783  0.4811  0.7867  0.3817
 2349SOL    HW1 7182   0.949   0.054   1.823  1.5943  2.8831  1.8709
 2349SOL    HW2 7183   0.898   0.103   1.689  0.1136 -1.8193  0.5334
 2350SOL     OW 7184   2.092   1.007   3.193  0.0399 -0.7623  0.3988
 2350SOL    HW1 7185   2.015   1.041   3.238 -0.1790 -1.1419  0.3181
 2350SOL    HW2 7186   2.105   0.919   3.230 -0.0509 -1.0173 -0.1636
 2351SOL     OW 7187   2.314   3.660   4.865 -0.6767 -0.4402  0.0551
 2351SOL    HW1 7188   2.382   3.710   4.820 -0.7440  0.3574  0.7907
 2351SOL    HW2 7189   2.308   3.702   4.951  1.2182 -3.4020  1.8193
 2352SOL     OW 7190   4.571   5.008   4.732  0.0654  0.0207 -0.3026
 2352SOL    HW1 7191   4.635   5.047   4.791 -0.4585  1.9006 -0.9133
 2352SOL    HW2 7192   4.623   4.970   4.661  0.5690  1.0971 -0.5427
 2353SOL     OW 7193   0.185   2.855   1.630 -0.9055  1.0419  0.2003
 2353SOL    HW1 7194   0.205   2.770   1.668  0.5110  2.1575  2.1336
 2353SOL    HW2 7195   0.186   2.840   1.535  1.7700 -0.5931  0.3862
 2354SOL     OW 7196   0.017   2.240   1.693  0.3092 -0.0717  0.0041
 2354SOL    HW1 7197  -0.061   2.247   1.639 -0.2858 -0.2795  0.8159
 2354SOL    HW2 7198   0.082   2.197   1.637  0.2726  1.2811 -1.1141
 2355SOL     OW 7199   4.713   1.594   1.389  0.1703 -0.2208 -0.3753
 2355SOL    HW1 7200   4.714   1.549   1.474 -0.1582 -1.5844 -1.0579
 2355SOL    HW2 7201   4.806   1.604   1.366  0.3277  1.6281  0.8441
 2356SOL     OW 7202   4.717   1.056   1.901 -0.3536  0.3910 -0.0807
 2356SOL    HW1 7203   4.694   1.021   1.987 -0.0123  2.2051  0.8169
 2356SOL    HW2 7204   4.786   1.120   1.919 -2.3333  3.0913 -1.2011
 2357SOL     OW 7205   1.553   2.659   4.821 -0.2534  0.4047  0.4056
 2357SOL    HW1 7206   1.611   2.691   4.752  1.0245 -0.1830  1.1726
 2357SOL    HW2 7207   1.612   2.628   4.890 -1.4810 -0.3141  1.1766
 2358SOL     OW 7208   0.930   3.318   1.086  0.3085  0.1658 -0.0318
 2358SOL    HW1 7209   0.940   3.377   1.011  1.9450  0.5278  0.4288
 2358SOL    HW2 7210   1.011   3.267   1.087 -0.5207 -1.1952  0.3625
 2359SOL     OW 7211   0.973   1.230   3.414 -0.3276 -0.0790  0.4066
 2359SOL    HW1 7212   1.018   1.149   3.436 -0.7585  0.0480  1.8860
 2359SOL    HW2 7213   0.911   1.205   3.345  0.2238 -0.7798  0.1519
 2360SOL     OW 7214   3.353   3.093   2.609 -0.0017 -0.3628 -0.2171
 2360SOL    HW1 7215   3.358   3.183   2.640  0.8344 -0.2145 -0.7643
 2360SOL    HW2 7216   3.378   3.098   2.517  1.4689 -1.3487  0.1046
 2361SOL     OW 7217   3.278   3.639   0.772  0.2062  0.0030 -0.4150
 2361SOL    HW1 7218   3.198   3.586   0.770  0.5679 -0.6022  0.3465
 2361SOL    HW2 7219   3.306   3.644   0.680  0.0334 -0.9380 -0.5312
 2362SOL     OW 7220   3.291   2.469   2.562  0.2778 -0.3060 -0.3334
 2362SOL    HW1 7221   3.377   2.504   2.588  0.4679  0.1523 -1.5047
 2362SOL    HW2 7222   3.233   2.491   2.635  1.1755 -0.7279  0.5277
 2363SOL     OW 7223   1.138   2.113   2.448  0.7309 -1.0960  0.2256
 2363SOL    HW1 7224   1.149   2.118   2.353 -0.0191  1.4319  0.1827
 2363SOL    HW2 7225   1.048   2.086   2.460  0.1833  0.5788  0.1316
 2364SOL     OW 7226   0.899   3.301   4.226 -0.2842 -0.6781 -0.1361
 2364SOL    HW1 7227   0.806   3.279   4.219 -0.4825  0.4163 -1.0319
 2364SOL    HW2 7228   0.910   3.379   4.173  1.5799 -2.0063 -1.8364
 2365SOL     OW 7229   0.167   0.014   0.039  0.2600 -0.4300  0.0084
 2365SOL    HW1 7230   0.255   0.046   0.020  0.5186 -0.8649  0.4559
 2365SOL    HW2 7231   0.117   0.031  -0.041  1.2784 -2.1506 -1.0355
 2366SOL     OW 7232   1.493   4.070   0.832  0.6446  0.3013 -0.1017
 2366SOL    HW1 7233   1.526   4.046   0.919 -0.1830 -3.0514 -0.5863
 2366SOL    HW2 7234   1.570   4.101   0.785  1.2488  1.4922  1.5383
 2367SOL     OW 7235   1.649   4.815   2.372 -0.5775 -0.3325  0.2528
 2367SOL    HW1 7236   1.652   4.820   2.467  0.9516 -0.3825  0.2245
 2367SOL    HW2 7237   1.740   4.809   2.345 -1.0156 -0.9952 -1.1880
 2368SOL     OW 7238   0.499   2.212   0.486  0.2765 -0.3997 -0.4785
 2368SOL    HW1 7239   0.422   2.264   0.507  0.9787  0.3066  0.4073
 2368SOL    HW2 7240   0.464   2.134   0.442 -1.0155 -0.5249  0.7211
 2369SOL     OW 7241   2.101   2.334   0.939  0.4945  0.1166 -0.1673
 2369SOL    HW1 7242   2.194   2.340   0.958  0.5520 -2.2403  0.6135
 2369SOL    HW2 7243   2.092   2.258   0.882 -1.1620 -1.5372  2.1079
 2370SOL     OW 7244   2.299   4.326   1.630  0.5553  0.3527 -0.3340
 2370SOL    HW1 7245   2.248   4.296   1.705  0.8314  2.1674  0.6427
 2370SOL    HW2 7246   2.387   4.295   1.647  0.5530  0.4940 -0.0475
 2371SOL     OW 7247   4.529   3.782   2.608 -0.3426 -0.5365 -0.0810
 2371SOL    HW1 7248   4.485   3.761   2.691  0.2296  1.9550  0.9648
 2371SOL    HW2 7249   4.458   3.811   2.550 -0.6394 -1.3530 -0.1310
 2372SOL     OW 7250   3.462   0.099   4.704  0.2375 -0.5474  0.0292
 2372SOL    HW1 7251   3.369   0.093   4.683  0.0481  0.1372  0.6372
 2372SOL    HW2 7252   3.476   0.034   4.772  0.1158 -0.3747  0.2204
 2373SOL     OW 7253   2.520   2.195   3.263  0.4775  0.1189  0.4370
 2373SOL    HW1 7254   2.575   2.212   3.339 -0.4315  1.8303  0.7577
 2373SOL    HW2 7255   2.432   2.219   3.291  0.0890  0.5578 -1.0711
 2374SOL     OW 7256   3.761   2.609   1.677 -0.1918  0.4817 -0.5802
 2374SOL    HW1 7257   3.846   2.576   1.706  0.9291  2.1677 -1.7711
 2374SOL    HW2 7258   3.725   2.653   1.754 -0.2512 -0.6829  0.0819
 2375SOL     OW 7259   4.158   1.913   3.552 -0.0599 -0.1321  0.3759
 2375SOL    HW1 7260   4.253   1.897   3.548  0.2541  1.3120  1.3543
 2375SOL    HW2 7261   4.146   1.993   3.502 -0.4862  0.7028  1.7759
 2376SOL     OW 7262   3.721   0.835   0.391  0.3732 -0.1495  0.4470
 2376SOL    HW1 7263   3.751   0.764   0.447 -0.8215 -1.5782 -0.6397
 2376SOL    HW2 7264   3.801   0.873   0.355  1.0217 -1.2190  0.7190
 2377SOL     OW 7265   4.999   3.350   1.217 -0.4173  0.7917  0.4320
 2377SOL    HW1 7266   4.927   3.288   1.201  0.2353  0.1706 -0.1869
 2377SOL    HW2 7267   5.078   3.296   1.216  0.0427  1.4221  1.4181
 2378SOL     OW 7268   0.939   4.065   1.200 -0.3206  0.5886 -0.3735
 2378SOL    HW1 7269   0.899   4.145   1.165  0.9579  1.5122  0.1534
 2378SOL    HW2 7270   0.930   4.073   1.295 -0.5911 -0.1248 -0.3370
 2379SOL     OW 7271   1.117   1.551   2.829 -0.3403  0.1371 -0.2584
 2379SOL    HW1 7272   1.134   1.511   2.744  0.8134 -1.3180  0.5952
 2379SOL    HW2 7273   1.023   1.537   2.844 -0.5544  0.4084 -1.2663
 2380SOL     OW 7274   0.113   3.204   2.126 -0.4056 -0.4007 -0.5332
 2380SOL    HW1 7275   0.074   3.157   2.200  0.1829  0.3102  0.2531
 2380SOL    HW2 7276   0.045   3.203   2.059 -0.3714 -2.4467 -0.6054
 2381SOL     OW 7277   0.475   4.932   3.605  0.0849  0.1912  0.0788
 2381SOL    HW1 7278   0.550   4.878   3.581 -0.3866 -1.3227  1.7656
 2381SOL    HW2 7279   0.411   4.915   3.536  0.1006 -1.1481  0.3501
 2382SOL     OW 7280   0.983   0.112   3.594 -0.1834 -0.0230  0.4578
 2382SOL    HW1 7281   0.957   0.204   3.595 -1.7515 -0.4091 -0.2263
 2382SOL    HW2 7282   0.916   0.068   3.648  1.0760 -0.6631  1.5682
 2383SOL     OW 7283   3.110   1.147   4.757 -0.0134 -0.0307  0.2184
 2383SOL    HW1 7284   3.115   1.243   4.762  0.5776 -0.0822  0.7385
 2383SOL    HW2 7285   3.140   1.117   4.843 -0.7224 -0.6727  0.2543
 2384SOL     OW 7286   1.091   2.499   2.292 -0.6669  0.5144  0.0952
 2384SOL    HW1 7287   1.170   2.487   2.238  0.4736  1.9914  1.3451
 2384SOL    HW2 7288   1.019   2.490   2.230  0.2926 -2.8864 -0.7846
 2385SOL     OW 7289   4.347   3.891   1.834 -0.6501  0.5869 -0.0513
 2385SOL    HW1 7290   4.298   3.955   1.783  1.3687  0.8599 -1.7987
 2385SOL    HW2 7291   4.438   3.920   1.827 -0.0464 -0.6954  1.8268
 2386SOL     OW 7292   4.279   2.076   5.045 -0.2127  0.3420  0.4232
 2386SOL    HW1 7293   4.191   2.093   5.013 -0.0333  0.1254 -0.2054
 2386SOL    HW2 7294   4.337   2.111   4.976  0.1792 -0.2390  0.4486
 2387SOL     OW 7295   1.468   3.122   2.241 -0.4513  0.7605  0.1937
 2387SOL    HW1 7296   1.560   3.098   2.248 -0.1390  1.9827  0.4817
 2387SOL    HW2 7297   1.425   3.078   2.314  0.4036  2.4061  1.7463
 2388SOL     OW 7298   0.235   4.800   1.894  0.8520 -0.0575 -0.2871
 2388SOL    HW1 7299   0.185   4.761   1.965  0.2952  2.1874  0.6197
 2388SOL    HW2 7300   0.185   4.780   1.815  0.6056 -1.1381  0.1245
 2389SOL     OW 7301   4.375   2.508   1.682  0.2794 -0.8965  0.2287
 2389SOL    HW1 7302   4.329   2.578   1.728 -0.8915 -1.9226  0.6870
 2389SOL    HW2 7303   4.350   2.428   1.729  0.7307 -1.7435 -0.9206
 2390SOL     OW 7304   4.622   1.421   2.029  0.2480 -0.7562 -0.1825
 2390SOL    HW1 7305   4.533   1.455   2.032 -0.2805 -1.6541 -2.8174
 2390SOL    HW2 7306   4.611   1.325   2.030  0.9402 -0.9288 -2.6726
 2391SOL     OW 7307   3.775   0.264   3.032  0.5048 -0.4748 -0.7036
 2391SOL    HW1 7308   3.712   0.193   3.040  0.0935 -0.0202  0.2922
 2391SOL    HW2 7309   3.836   0.235   2.964  0.7923 -2.1144  0.1954
 2392SOL     OW 7310   2.423   1.400   0.017 -0.1227 -0.4686  0.3517
 2392SOL    HW1 7311   2.471   1.427  -0.061  1.8609 -2.3084  0.8559
 2392SOL    HW2 7312   2.488   1.398   0.087 -1.4094 -0.8856  1.5949
 2393SOL     OW 7313   4.110   1.936   4.208 -0.5710 -0.2752  0.0983
 2393SOL    HW1 7314   4.127   1.846   4.180 -0.5914 -2.0994  5.0792
 2393SOL    HW2 7315   4.197   1.974   4.221 -0.4910 -0.7767  1.1277
 2394SOL     OW 7316   0.920   0.601   0.200  0.0722  0.5806 -0.1962
 2394SOL    HW1 7317   0.885   0.664   0.262 -0.6154 -1.0714  1.1727
 2394SOL    HW2 7318   0.843   0.570   0.152 -0.0374 -1.1239  0.9942
 2395SOL     OW 7319   1.326   0.450   1.317 -0.9117 -0.0882  0.2431
 2395SOL    HW1 7320   1.385   0.394   1.368 -1.5269 -0.3137  0.7170
 2395SOL    HW2 7321   1.238   0.424   1.345 -1.3807 -1.4107 -2.1347
 2396SOL     OW 7322   2.046   2.633   1.278  0.2188  0.1097 -0.3190
 2396SOL    HW1 7323   2.033   2.727   1.283 -1.0020 -0.0840  0.8023
 2396SOL    HW2 7324   2.119   2.615   1.337 -0.0931  0.2670  0.1169
 2397SOL     OW 7325   0.863   2.462   2.161  0.1508  0.0804 -0.3271
 2397SOL    HW1 7326   0.777   2.491   2.132  0.5745 -0.0185 -1.7489
 2397SOL    HW2 7327   0.869   2.371   2.130 -0.0398 -0.6433  1.6019
 2398SOL     OW 7328   1.872   2.272   3.306  0.2113 -0.3442 -0.2549
 2398SOL    HW1 7329   1.883   2.198   3.366 -1.0542 -2.3033 -2.2561
 2398SOL    HW2 7330   1.938   2.258   3.238  1.4544  1.6948  0.4355
 2399SOL     OW 7331   3.046   0.416   4.095  0.1294 -0.0434 -0.4325
 2399SOL    HW1 7332   3.081   0.500   4.126  0.0570  0.5603 -1.8951
 2399SOL    HW2 7333   3.083   0.351   4.155  1.2408  0.9047 -0.0492
 2400SOL     OW 7334   3.045   3.445   3.097 -0.1499 -0.0894 -0.4314
 2400SOL    HW1 7335   3.104   3.520   3.107 -0.7370  0.1536  1.7908
 2400SOL    HW2 7336   2.982   3.473   3.031  0.9886  0.4401 -1.3438
 2401SOL     OW 7337   2.421   0.824   4.913 -0.3767 -0.5068 -0.0749
 2401SOL    HW1 7338   2.462   0.752   4.962 -1.9534 -1.5892 -0.2658
 2401SOL    HW2 7339   2.479   0.838   4.838 -0.2536 -1.9125 -0.2776
 2402SOL     OW 7340   1.718   1.792   1.497  0.2639 -0.0248 -0.2814
 2402SOL    HW1 7341   1.659   1.868   1.503 -0.3271 -0.3588 -1.6670
 2402SOL    HW2 7342   1.698   1.741   1.575 -2.4343 -0.9123 -1.4425
 2403SOL     OW 7343   4.871   2.564   2.101 -0.3941 -0.5235 -0.1090
 2403SOL    HW1 7344   4.906   2.501   2.163 -0.3724 -1.4754 -1.0652
 2403SOL    HW2 7345   4.948   2.609   2.065 -0.3681 -0.4346  0.0546
 2404SOL     OW 7346   2.728   0.630   4.358 -0.1845  0.3513  0.0402
 2404SOL    HW1 7347   2.711   0.547   4.312 -4.4915  1.6768 -1.2865
 2404SOL    HW2 7348   2.690   0.617   4.445 -1.4059  1.0126 -0.3644
 2405SOL     OW 7349   4.754   3.812   2.132  1.0203 -0.1444  0.3982
 2405SOL    HW1 7350   4.806   3.861   2.195 -2.2539 -0.2677  3.5420
 2405SOL    HW2 7351   4.691   3.875   2.098  0.5241 -0.8706 -0.0782
 2406SOL     OW 7352   0.346   2.042   0.375 -0.1006  0.0983  0.0640
 2406SOL    HW1 7353   0.288   1.993   0.433 -1.0093  0.9933 -0.0715
 2406SOL    HW2 7354   0.288   2.099   0.325  0.9011  0.9861 -0.1160
 2407SOL     OW 7355   4.393   4.601   3.394 -0.3542 -0.4702  0.5616
 2407SOL    HW1 7356   4.339   4.636   3.465 -0.5846  0.4741 -0.0605
 2407SOL    HW2 7357   4.364   4.649   3.316 -0.5228 -1.8958 -0.2963
 2408SOL     OW 7358   1.537   1.481   0.876 -0.3945  0.1232  0.0605
 2408SOL    HW1 7359   1.592   1.524   0.810  1.1565  0.3520  1.4253
 2408SOL    HW2 7360   1.456   1.532   0.876 -1.2662 -1.0813 -2.9986
 2409SOL     OW 7361   1.653   2.429   2.142  0.5631  0.7754  0.8426
 2409SOL    HW1 7362   1.717   2.494   2.110  0.3455  1.5594  1.9207
 2409SOL    HW2 7363   1.594   2.480   2.198  0.2191 -0.3157  1.4932
 2410SOL     OW 7364   2.928   4.076   2.411 -0.2656 -0.1133 -0.1561
 2410SOL    HW1 7365   2.879   4.017   2.353 -0.7443  1.2652 -1.2191
 2410SOL    HW2 7366   3.016   4.037   2.415 -0.6206 -1.0091 -0.6519
 2411SOL     OW 7367   0.984   1.124   3.744 -0.2041  0.4695 -0.2877
 2411SOL    HW1 7368   0.898   1.086   3.726 -0.4926  2.5534 -4.7057
 2411SOL    HW2 7369   1.035   1.107   3.664  2.3765  2.1411  0.8585
 2412SOL     OW 7370   4.108   3.347   0.922  0.1081  0.0473 -0.1794
 2412SOL    HW1 7371   4.094   3.307   0.835  1.8891  0.2220 -0.5832
 2412SOL    HW2 7372   4.029   3.399   0.937  0.4754  1.4008 -2.4854
 2413SOL     OW 7373   3.731   0.906   0.679  0.4581 -0.2117 -0.4932
 2413SOL    HW1 7374   3.731   0.816   0.646  2.0458 -0.3138 -0.3138
 2413SOL    HW2 7375   3.666   0.952   0.626 -0.7236 -1.5625 -0.2566
 2414SOL     OW 7376   4.718   3.654   1.277  0.5363 -0.0314  0.5375
 2414SOL    HW1 7377   4.751   3.583   1.333 -1.8805 -0.9903  0.8948
 2414SOL    HW2 7378   4.632   3.676   1.315  0.0514  1.2240 -1.1642
 2415SOL     OW 7379   4.160   0.994   0.198 -0.2100 -0.1191 -0.1130
 2415SOL    HW1 7380   4.219   0.996   0.123  0.7158  1.0963  0.6160
 2415SOL    HW2 7381   4.197   0.928   0.256 -0.5898 -0.6354 -0.4554
 2416SOL     OW 7382   3.625   2.505   2.908  0.4286  0.0791  0.5800
 2416SOL    HW1 7383   3.555   2.571   2.912  1.5998  1.3739  0.5820
 2416SOL    HW2 7384   3.696   2.548   2.861  0.7888 -1.6611 -0.5556
 2417SOL     OW 7385   3.389   1.315   0.949 -0.1339  0.2284  0.3272
 2417SOL    HW1 7386   3.379   1.369   0.871 -0.0652  1.3075  1.0551
 2417SOL    HW2 7387   3.473   1.271   0.937 -0.5018 -0.2565 -0.5836
 2418SOL     OW 7388   3.163   3.745   1.489  0.4698 -0.7631  0.5629
 2418SOL    HW1 7389   3.235   3.763   1.428 -0.2186  1.3422  0.2735
 2418SOL    HW2 7390   3.205   3.739   1.575  1.0776 -0.1329  0.3221
 2419SOL     OW 7391   2.290   2.615   4.086  0.2869  0.1331 -0.5112
 2419SOL    HW1 7392   2.241   2.535   4.069  0.2652 -0.2334  1.0975
 2419SOL    HW2 7393   2.349   2.624   4.011 -0.2930 -0.9408 -1.1075
 2420SOL     OW 7394   4.894   3.559   3.041  0.2462 -0.3086  0.4725
 2420SOL    HW1 7395   4.815   3.515   3.074  0.1091 -1.0616 -0.7904
 2420SOL    HW2 7396   4.871   3.652   3.040 -0.7857 -0.5534 -0.2503
 2421SOL     OW 7397   1.549   3.712   0.968 -0.0049  0.6355  0.1767
 2421SOL    HW1 7398   1.571   3.796   0.926  0.0982  0.9518  0.8522
 2421SOL    HW2 7399   1.596   3.714   1.051 -0.7690  0.3169  0.6177
 2422SOL     OW 7400   1.795   4.754   1.404 -0.1585 -0.5288 -0.4555
 2422SOL    HW1 7401   1.859   4.772   1.336  0.5565  0.5206  0.4643
 2422SOL    HW2 7402   1.809   4.662   1.427 -0.8258 -1.0728 -2.1190
 2423SOL     OW 7403   0.047   0.638   1.520 -0.1587  0.2545  0.6262
 2423SOL    HW1 7404   0.074   0.670   1.606 -1.4411  1.1120  0.7346
 2423SOL    HW2 7405  -0.037   0.681   1.503 -0.6540 -1.0393 -0.4081
 2424SOL     OW 7406   3.242   2.030   2.047  0.0229 -0.1636  0.2464
 2424SOL    HW1 7407   3.222   1.993   2.133  0.0419 -0.4940  0.1086
 2424SOL    HW2 7408   3.267   2.120   2.066 -1.7352  0.3293  0.4107
 2425SOL     OW 7409   0.662   0.484   3.133 -0.2271  0.0945 -0.7887
 2425SOL    HW1 7410   0.642   0.429   3.208  2.0579 -0.9344 -0.8328
 2425SOL    HW2 7411   0.706   0.561   3.171  2.4926 -1.2066 -1.0520
 2426SOL     OW 7412   2.426   3.014   2.113 -0.4033  0.3720  0.1155
 2426SOL    HW1 7413   2.417   3.070   2.190  1.0151  0.5979  0.1541
 2426SOL    HW2 7414   2.442   3.074   2.041 -1.1483  0.1275 -0.2646
 2427SOL     OW 7415   4.359   2.061   3.152 -0.2266  0.0669  0.4815
 2427SOL    HW1 7416   4.330   2.152   3.153 -0.7057 -0.0711 -0.2230
 2427SOL    HW2 7417   4.423   2.057   3.080 -0.7732 -0.3142  0.0101
 2428SOL     OW 7418   2.290   0.664   1.817 -0.4406 -0.5877  0.4770
 2428SOL    HW1 7419   2.282   0.570   1.835 -1.7536 -0.6236 -0.1303
 2428SOL    HW2 7420   2.340   0.699   1.891  1.4306 -1.9937 -0.0770
 2429SOL     OW 7421   2.506   3.939   2.321 -0.3590  0.2983  0.0672
 2429SOL    HW1 7422   2.435   3.952   2.384 -0.8062 -0.0297 -0.3548
 2429SOL    HW2 7423   2.539   4.027   2.304 -0.4465  0.4228  0.5170
 2430SOL     OW 7424   0.875   3.948   4.638  0.1292 -0.1232  0.4050
 2430SOL    HW1 7425   0.852   3.960   4.546  0.9565  1.2417  0.3442
 2430SOL    HW2 7426   0.912   3.859   4.642 -0.7405 -0.5360 -0.3821
 2431SOL     OW 7427   3.319   2.953   0.975 -0.1230  0.1970  0.0662
 2431SOL    HW1 7428   3.319   3.031   0.920  0.5865 -0.3874 -0.7842
 2431SOL    HW2 7429   3.239   2.906   0.951  0.1723 -0.0429 -0.4497
 2432SOL     OW 7430   2.096   2.229   2.163  0.6453 -0.1126 -0.0476
 2432SOL    HW1 7431   2.119   2.321   2.155 -0.8772  0.2298 -0.9066
 2432SOL    HW2 7432   2.021   2.228   2.222  1.9655 -1.0534  1.7065
 2433SOL     OW 7433   3.451   3.130   2.021 -0.5759  0.3066 -0.4349
 2433SOL    HW1 7434   3.418   3.105   1.935  1.0494 -1.5095 -0.5861
 2433SOL    HW2 7435   3.397   3.080   2.083 -0.1640 -0.2532 -0.5253
 2434SOL     OW 7436   3.664   2.913   2.618  0.5336 -0.3472 -0.1199
 2434SOL    HW1 7437   3.655   3.006   2.639 -1.2301 -0.3027 -0.9421
 2434SOL    HW2 7438   3.690   2.911   2.526 -0.1268 -0.6593 -0.3077
 2435SOL     OW 7439   2.224   1.780   4.441  0.5791  0.2128  0.2592
 2435SOL    HW1 7440   2.195   1.821   4.360 -0.9154 -1.1117  0.0680
 2435SOL    HW2 7441   2.267   1.851   4.490  0.3183  1.3512 -1.0934
 2436SOL     OW 7442   4.314   0.284   2.611  0.1544  0.5262 -0.3840
 2436SOL    HW1 7443   4.292   0.343   2.683  1.4449  0.6608 -0.0655
 2436SOL    HW2 7444   4.290   0.332   2.532 -1.3467  0.3468 -0.0567
 2437SOL     OW 7445   2.103   1.190   1.221  0.0674  0.6780 -1.0672
 2437SOL    HW1 7446   2.129   1.108   1.264 -2.3237  0.0431 -0.7087
 2437SOL    HW2 7447   2.180   1.215   1.169  1.4309 -0.9121  0.0723
 2438SOL     OW 7448   0.824   1.354   2.706  0.3857 -0.4668 -0.3305
 2438SOL    HW1 7449   0.843   1.345   2.799 -1.2257 -1.5160 -0.0622
 2438SOL    HW2 7450   0.892   1.303   2.662  0.1282 -1.4497  0.3793
 2439SOL     OW 7451   0.422   2.983   0.524 -0.4114 -0.0410  0.2663
 2439SOL    HW1 7452   0.396   2.966   0.615  0.6249 -0.8635  0.4181
 2439SOL    HW2 7453   0.459   3.072   0.527 -1.7977  0.5693  0.3220
 2440SOL     OW 7454   1.202   4.894   2.309  0.0096 -0.2298 -0.2788
 2440SOL    HW1 7455   1.124   4.867   2.260 -1.7999  1.5464  1.4296
 2440SOL    HW2 7456   1.179   4.881   2.401  2.1926 -0.7104  0.2658
 2441SOL     OW 7457   4.647   2.223   0.995 -0.4593 -0.2247  0.5081
 2441SOL    HW1 7458   4.726   2.192   0.951 -1.6892 -1.2515 -1.0694
 2441SOL    HW2 7459   4.659   2.196   1.087  0.5057 -1.3975  0.0687
 2442SOL     OW 7460   2.288   4.538   4.687 -0.1197  0.1558 -0.2736
 2442SOL    HW1 7461   2.304   4.632   4.677 -0.5038  0.3002  0.3823
 2442SOL    HW2 7462   2.192   4.530   4.688 -0.0895 -0.2937 -0.7478
 2443SOL     OW 7463   1.976   0.468   0.293 -0.0700  0.2917  0.3231
 2443SOL    HW1 7464   2.031   0.471   0.215  0.4040 -0.4253  0.6182
 2443SOL    HW2 7465   2.025   0.519   0.358  0.0377  0.0280  0.4515
 2444SOL     OW 7466   3.360   3.449   0.346  0.1742  0.3058 -0.0763
 2444SOL    HW1 7467   3.355   3.354   0.346 -0.7974  0.3449  0.2112
 2444SOL    HW2 7468   3.286   3.477   0.400 -0.3969  1.2540 -1.2920
 2445SOL     OW 7469   3.970   0.066   2.315  0.1657 -0.0291 -0.3369
 2445SOL    HW1 7470   4.041   0.130   2.309 -0.1451  0.8395  3.0383
 2445SOL    HW2 7471   3.934   0.061   2.227  5.6819 -2.2187 -2.9881
 2446SOL     OW 7472   1.607   4.330   4.278  0.2256 -0.1247 -0.2753
 2446SOL    HW1 7473   1.645   4.415   4.253 -0.5334  0.3869  0.2632
 2446SOL    HW2 7474   1.678   4.284   4.322  0.4702  0.4736 -0.0351
 2447SOL     OW 7475   3.568   0.263   2.075 -0.2030  0.1800 -0.1175
 2447SOL    HW1 7476   3.578   0.170   2.092 -0.3277  0.0129 -0.9299
 2447SOL    HW2 7477   3.604   0.306   2.153 -1.2432 -0.5503  0.8057
 2448SOL     OW 7478   3.452   4.893   4.426  0.3951  0.4645  0.1479
 2448SOL    HW1 7479   3.456   4.973   4.479 -0.8688  1.6516 -1.4488
 2448SOL    HW2 7480   3.405   4.831   4.481  0.7199  1.0407  1.1188
 2449SOL     OW 7481   2.392   0.040   1.720  0.0910  0.1120 -0.1820
 2449SOL    HW1 7482   2.303   0.004   1.719  0.4337 -0.8031  0.6618
 2449SOL    HW2 7483   2.413   0.051   1.627 -1.6211  2.2926 -0.3971
 2450SOL     OW 7484   3.581   4.822   0.697 -0.1005  0.3757 -0.0375
 2450SOL    HW1 7485   3.562   4.728   0.696 -0.5092  0.4321 -1.7020
 2450SOL    HW2 7486   3.649   4.832   0.763  0.1093 -1.1275  0.0135
 2451SOL     OW 7487   1.240   1.902   1.960  0.8382  0.0223  1.5031
 2451SOL    HW1 7488   1.311   1.937   1.906  1.4841 -0.0856  2.2736
 2451SOL    HW2 7489   1.181   1.861   1.896  1.1362  0.6597  0.7931
 2452SOL     OW 7490   0.406   1.177   3.628  1.0740 -0.0717  0.3850
 2452SOL    HW1 7491   0.322   1.223   3.628  0.1346 -1.5910  2.3503
 2452SOL    HW2 7492   0.394   1.106   3.692  4.6299  1.1002  2.6507
 2453SOL     OW 7493   0.560   1.391   2.822  0.2442 -0.0643  0.1669
 2453SOL    HW1 7494   0.650   1.380   2.793  0.2903  0.4096  0.1272
 2453SOL    HW2 7495   0.556   1.345   2.906  0.6949  0.4680  0.4886
 2454SOL     OW 7496   1.193   2.787   2.874  0.2996 -0.3778  0.5230
 2454SOL    HW1 7497   1.277   2.789   2.828  1.1464  1.6316  2.0614
 2454SOL    HW2 7498   1.216   2.777   2.966 -1.1655  0.0451  0.9537
 2455SOL     OW 7499   4.591   4.083   4.830 -0.6607  0.0996  0.2119
 2455SOL    HW1 7500   4.611   4.040   4.747 -0.1763 -0.0709  0.4119
 2455SOL    HW2 7501   4.602   4.177   4.812  0.9868 -0.0018  0.4614
 2456SOL     OW 7502   4.004   3.415   2.942  0.8930  0.0994 -0.1780
 2456SOL    HW1 7503   3.923   3.366   2.922  0.5726 -0.0798  1.4023
 2456SOL    HW2 7504   4.066   3.347   2.970 -0.0291  0.5610  3.5637
 2457SOL     OW 7505   1.412   2.329   3.140  0.1796  0.0102 -0.4466
 2457SOL    HW1 7506   1.428   2.310   3.233  1.4174  2.0493 -0.1775
 2457SOL    HW2 7507   1.490   2.377   3.112 -0.2859 -0.3630 -2.4960
 2458SOL     OW 7508   3.710   1.674   0.323 -0.0309  0.1994 -0.0387
 2458SOL    HW1 7509   3.668   1.755   0.350 -0.8669 -0.9792  2.5329
 2458SOL    HW2 7510   3.798   1.677   0.362 -0.1829 -0.2378  0.3582
 2459SOL     OW 7511   1.911   1.025   1.070 -0.0791  0.0296 -0.3963
 2459SOL    HW1 7512   1.957   0.982   0.999  2.9730 -2.7773  2.9407
 2459SOL    HW2 7513   1.963   1.103   1.089  0.1649 -0.2084 -0.0848
 2460SOL     OW 7514   0.806   4.321   1.144 -0.0574  0.9393  0.0591
 2460SOL    HW1 7515   0.741   4.319   1.214  0.7157  0.1612  0.7782
 2460SOL    HW2 7516   0.755   4.332   1.064 -1.0836  0.2407  0.5973
 2461SOL     OW 7517   1.183   2.146   0.923  0.1983 -0.2781  0.9265
 2461SOL    HW1 7518   1.169   2.225   0.871 -0.4097  1.0775  3.0308
 2461SOL    HW2 7519   1.278   2.136   0.924  0.2152 -0.6632 -0.8357
 2462SOL     OW 7520   0.598   0.274   3.320  0.2691 -0.1533 -0.3014
 2462SOL    HW1 7521   0.542   0.205   3.284  1.4390 -0.6576 -1.1888
 2462SOL    HW2 7522   0.673   0.228   3.356 -1.2315  0.2203  3.7900
 2463SOL     OW 7523   0.761   3.286   2.955 -0.1669 -0.4266 -0.2733
 2463SOL    HW1 7524   0.805   3.231   3.019 -0.9733  0.3743  1.0127
 2463SOL    HW2 7525   0.687   3.234   2.924 -0.5501 -0.3252  0.4565
 2464SOL     OW 7526   1.642   4.400   3.834  0.0708 -0.4632 -0.1992
 2464SOL    HW1 7527   1.626   4.344   3.909 -1.3897 -0.2852 -0.3597
 2464SOL    HW2 7528   1.608   4.351   3.759  0.4863 -0.1558 -0.5963
 2465SOL     OW 7529   1.428   4.659   4.616  0.3231 -0.9208  0.4387
 2465SOL    HW1 7530   1.400   4.680   4.527 -0.0488 -1.0726  0.5179
 2465SOL    HW2 7531   1.361   4.598   4.648  0.1517 -0.4327  1.0242
 2466SOL     OW 7532   3.762   2.111   2.163  0.1253 -0.1318 -0.1616
 2466SOL    HW1 7533   3.745   2.105   2.257  1.5465 -1.7890  0.0490
 2466SOL    HW2 7534   3.773   2.021   2.135  0.1522  0.3663 -1.8533
 2467SOL     OW 7535   3.599   3.940   1.329  0.1439  0.0385  0.1084
 2467SOL    HW1 7536   3.626   3.861   1.281  2.6084  0.2266  1.0498
 2467SOL    HW2 7537   3.546   3.989   1.266  0.2533 -1.4066 -1.1678
 2468SOL     OW 7538   4.823   2.603   1.037  0.2024 -0.1340 -0.5049
 2468SOL    HW1 7539   4.789   2.540   1.102 -0.0186  0.4973  0.0014
 2468SOL    HW2 7540   4.787   2.573   0.954 -0.5392 -0.2303 -0.1577
 2469SOL     OW 7541   2.608   1.671   2.252  0.7318 -0.2214 -1.3009
 2469SOL    HW1 7542   2.544   1.623   2.305  2.5048 -1.1391  0.0774
 2469SOL    HW2 7543   2.554   1.715   2.186 -1.4673  0.1315  0.5891
 2470SOL     OW 7544   0.895   4.876   3.782  0.1176  0.2993 -0.1970
 2470SOL    HW1 7545   0.923   4.785   3.776  0.6367  0.3047  1.4627
 2470SOL    HW2 7546   0.967   4.920   3.829 -0.9207  1.1544  0.6530
 2471SOL     OW 7547   3.810   0.747   3.453  1.0105  0.3461  0.1422
 2471SOL    HW1 7548   3.736   0.730   3.396  0.2659  1.4038  0.7532
 2471SOL    HW2 7549   3.810   0.675   3.516  0.3862  0.4192  0.2329
 2472SOL     OW 7550   0.958   3.945   0.250  0.5273  0.1607  0.1976
 2472SOL    HW1 7551   1.031   4.006   0.257 -0.2694  0.9387  2.5028
 2472SOL    HW2 7552   0.881   3.997   0.271 -0.7777 -0.6202 -2.2566
 2473SOL     OW 7553   0.400   3.555   2.262  0.3169  0.4116 -0.3968
 2473SOL    HW1 7554   0.357   3.471   2.281 -0.6520  0.9160 -0.2567
 2473SOL    HW2 7555   0.489   3.545   2.296  0.6267 -0.9996 -1.5405
 2474SOL     OW 7556   1.233   0.537   2.782  0.4235 -0.8050 -0.1043
 2474SOL    HW1 7557   1.177   0.514   2.708  0.3950  0.5777 -0.5460
 2474SOL    HW2 7558   1.228   0.461   2.841 -0.0288 -1.6705 -1.2315
 2475SOL     OW 7559   4.029   2.125   3.920  0.8290  0.0279 -0.2087
 2475SOL    HW1 7560   4.008   2.125   4.014  1.8918  0.3055  0.0503
 2475SOL    HW2 7561   4.046   2.033   3.900 -0.3065 -0.1584 -0.3568
 2476SOL     OW 7562   1.907   4.207   0.679 -0.0980  0.2910 -0.2829
 2476SOL    HW1 7563   1.961   4.251   0.614  0.4030  0.6229  0.3385
 2476SOL    HW2 7564   1.845   4.273   0.708 -1.4118 -0.3261 -1.5916
 2477SOL     OW 7565   0.825   4.519   4.836  0.2713 -0.4249  0.3069
 2477SOL    HW1 7566   0.910   4.562   4.832  0.4987 -0.7478  1.3972
 2477SOL    HW2 7567   0.761   4.590   4.841  0.6532 -0.1688  2.3638
 2478SOL     OW 7568   4.961   2.793   0.356  0.1824  0.0792  0.2521
 2478SOL    HW1 7569   4.954   2.704   0.323  0.6900  0.3432 -0.6141
 2478SOL    HW2 7570   5.048   2.798   0.395 -0.6205 -0.3950  2.2129
 2479SOL     OW 7571   1.801   4.608   4.464 -0.0621 -0.2265 -0.9655
 2479SOL    HW1 7572   1.740   4.607   4.391  0.6655  0.1873 -1.5957
 2479SOL    HW2 7573   1.807   4.701   4.489 -1.4666 -0.5188  0.6343
 2480SOL     OW 7574   3.676   3.063   2.998 -0.3347  0.0985 -0.4269
 2480SOL    HW1 7575   3.622   2.998   2.953  1.7919 -0.5424 -2.1910
 2480SOL    HW2 7576   3.705   3.018   3.077 -1.0119 -0.1403 -0.3025
 2481SOL     OW 7577   3.421   2.748   3.702 -0.1073 -0.0301  0.3122
 2481SOL    HW1 7578   3.420   2.837   3.667  2.0843  0.1298  0.4844
 2481SOL    HW2 7579   3.495   2.706   3.657  1.5506 -0.4344  3.1768
 2482SOL     OW 7580   3.861   3.210   1.102  0.3128  0.1827 -0.6423
 2482SOL    HW1 7581   3.924   3.144   1.075 -0.2307  0.2115 -2.0427
 2482SOL    HW2 7582   3.805   3.164   1.166  0.1604 -0.6099 -1.3292
 2483SOL     OW 7583   2.875   0.971   4.787 -0.1100 -0.1918  0.2942
 2483SOL    HW1 7584   2.861   0.939   4.698  2.7091  0.3816 -0.4506
 2483SOL    HW2 7585   2.938   1.042   4.777 -2.7309  2.7029  2.3499
 2484SOL     OW 7586   4.822   3.053   0.628  0.0306 -0.3268 -0.0999
 2484SOL    HW1 7587   4.851   3.112   0.558  1.8483 -0.4522  0.4813
 2484SOL    HW2 7588   4.849   3.097   0.709  0.1454 -1.2950  0.4074
 2485SOL     OW 7589   2.833   0.946   2.948  0.2062  0.2965  0.8657
 2485SOL    HW1 7590   2.786   0.917   2.871 -0.2162 -0.8199  1.5188
 2485SOL    HW2 7591   2.925   0.944   2.922  0.0044  1.3460 -0.0375
 2486SOL     OW 7592   2.394   2.495   1.858  0.8845 -0.0779  0.9857
 2486SOL    HW1 7593   2.414   2.495   1.951  0.4270  0.1547  1.0834
 2486SOL    HW2 7594   2.414   2.584   1.829  0.2471  0.0804  1.0289
 2487SOL     OW 7595   0.986   3.204   2.319 -0.8222  0.3275 -0.2301
 2487SOL    HW1 7596   1.016   3.124   2.362  0.9737 -0.2987 -2.4214
 2487SOL    HW2 7597   0.978   3.268   2.389  4.0648  0.0233  0.9341
 2488SOL     OW 7598   4.725   4.413   2.394  0.8205 -0.5824  0.2778
 2488SOL    HW1 7599   4.718   4.505   2.421  3.2419 -0.2863  0.1174
 2488SOL    HW2 7600   4.664   4.405   2.321  0.2058  0.7767  0.6013
 2489SOL     OW 7601   1.565   4.768   1.066  0.2946 -0.1055 -0.2832
 2489SOL    HW1 7602   1.563   4.710   0.991 -0.1348 -1.0157  0.4130
 2489SOL    HW2 7603   1.598   4.851   1.032 -0.4469 -0.3300 -1.5802
 2490SOL     OW 7604   4.096   1.764   3.291  0.3022  0.5999 -0.7819
 2490SOL    HW1 7605   4.015   1.777   3.241 -0.5746 -1.6652 -0.0451
 2490SOL    HW2 7606   4.088   1.824   3.366 -0.6375  0.4683 -0.7719
 2491SOL     OW 7607   0.761   4.415   3.098  0.0885 -0.5246  0.0317
 2491SOL    HW1 7608   0.776   4.504   3.066 -1.7307 -0.4504 -0.7854
 2491SOL    HW2 7609   0.665   4.408   3.103  0.1307 -2.8535 -1.2180
 2492SOL     OW 7610   0.847   0.029   3.001 -0.2809 -0.0300  0.1146
 2492SOL    HW1 7611   0.929   0.020   2.953  0.0688 -0.1569  0.7199
 2492SOL    HW2 7612   0.835   0.124   3.011 -0.2131 -0.0110  0.0158
 2493SOL     OW 7613   4.090   4.042   2.407 -0.3437 -0.0570 -0.0363
 2493SOL    HW1 7614   4.040   3.960   2.403 -0.9178  0.3108 -0.6536
 2493SOL    HW2 7615   4.105   4.057   2.500 -0.0920 -0.9467  0.0775
 2494SOL     OW 7616   3.030   1.299   3.342  0.9099  0.3455 -0.0909
 2494SOL    HW1 7617   2.948   1.331   3.303  0.1096  0.4396  1.5628
 2494SOL    HW2 7618   3.006   1.214   3.380  1.3427  0.7238  1.0990
 2495SOL     OW 7619   0.644   4.002   1.295 -0.5423  0.0647 -0.4101
 2495SOL    HW1 7620   0.659   4.018   1.202  0.0273  0.4068 -0.2669
 2495SOL    HW2 7621   0.705   4.062   1.339 -1.5242  0.6386  0.1938
 2496SOL     OW 7622   1.083   5.035   2.871 -0.3166  0.0669  0.0746
 2496SOL    HW1 7623   1.097   4.944   2.899  1.2600  0.6212  1.1867
 2496SOL    HW2 7624   1.109   5.036   2.779  0.4093 -0.4432  0.2681
 2497SOL     OW 7625   4.618   3.538   1.037  0.2845  0.6559  0.7528
 2497SOL    HW1 7626   4.522   3.545   1.030  0.2629  1.2566  1.5547
 2497SOL    HW2 7627   4.643   3.607   1.098  1.0537 -0.5353  1.8455
 2498SOL     OW 7628   1.210   0.033   3.234 -0.4667  0.3297 -0.4972
 2498SOL    HW1 7629   1.145   0.098   3.261  0.4871  0.8815  0.5471
 2498SOL    HW2 7630   1.213  -0.030   3.306 -1.5387 -1.0595 -1.5891
 2499SOL     OW 7631   3.009   2.485   1.818  0.7818 -0.6770  1.2036
 2499SOL    HW1 7632   3.090   2.434   1.826  0.3706 -1.4346  0.6903
 2499SOL    HW2 7633   2.957   2.437   1.754  0.8149  0.9781 -0.1270
 2500SOL     OW 7634   4.795   2.291   1.584  0.2186 -0.1827  0.2860
 2500SOL    HW1 7635   4.811   2.378   1.621 -1.4827 -0.4312  1.7487
 2500SOL    HW2 7636   4.701   2.276   1.598  0.5886 -2.4928  0.6084
 2501SOL     OW 7637   4.782   2.001   3.447  0.5294  0.8448 -0.2905
 2501SOL    HW1 7638   4.835   1.981   3.370 -1.1503 -2.3837 -0.7725
 2501SOL    HW2 7639   4.691   1.993   3.417 -0.2308  2.4067  1.3832
 2502SOL     OW 7640   5.042   1.991   3.606 -0.2027 -0.0557 -0.6271
 2502SOL    HW1 7641   5.063   1.963   3.695  1.4324 -2.6752 -1.7148
 2502SOL    HW2 7642   4.947   2.000   3.604 -0.2058  0.8214  1.5336
 2503SOL     OW 7643   2.355   0.062   2.766 -0.1830 -0.1881 -0.5325
 2503SOL    HW1 7644   2.297   0.136   2.747  1.0653  0.1883 -3.3906
 2503SOL    HW2 7645   2.439   0.088   2.728  0.3443 -2.9986 -1.4691
 2504SOL     OW 7646   2.560   4.677   1.274 -0.2004  0.2408 -0.1740
 2504SOL    HW1 7647   2.510   4.672   1.355  1.7754 -0.0113  1.1086
 2504SOL    HW2 7648   2.559   4.588   1.239 -2.0813  0.5936 -1.1422
 2505SOL     OW 7649   4.009   1.150   3.341  0.0249  0.4207 -0.2754
 2505SOL    HW1 7650   4.012   1.203   3.261 -2.3267  0.6896 -0.2768
 2505SOL    HW2 7651   4.054   1.069   3.319 -0.0302  0.7528 -1.6828
 2506SOL     OW 7652   3.814   1.801   3.210 -0.3760  0.4013 -0.4176
 2506SOL    HW1 7653   3.842   1.878   3.160 -0.2634  0.1473 -0.7559
 2506SOL    HW2 7654   3.778   1.742   3.144 -0.1349  0.0179 -0.2139
 2507SOL     OW 7655   3.263   1.981   2.481 -0.3539  0.0832 -0.2270
 2507SOL    HW1 7656   3.335   2.026   2.526  0.7026 -1.3512 -0.3998
 2507SOL    HW2 7657   3.216   1.935   2.551  1.0472 -1.8188 -0.4526
 2508SOL     OW 7658   4.200   4.224   3.407  0.7568  0.6723 -0.2833
 2508SOL    HW1 7659   4.191   4.315   3.433  0.6453  0.4989  0.3017
 2508SOL    HW2 7660   4.185   4.224   3.312 -1.3412  0.9761 -0.0082
 2509SOL     OW 7661   4.332   3.016   2.019  0.2004  0.0548 -0.8385
 2509SOL    HW1 7662   4.425   3.017   2.042  0.3133 -0.2890 -1.2555
 2509SOL    HW2 7663   4.306   2.924   2.032  0.1839 -0.0745 -1.7251
 2510SOL     OW 7664   4.488   1.043   4.914  0.5805 -0.0112  0.2271
 2510SOL    HW1 7665   4.421   1.095   4.959 -0.2101 -0.3892 -0.4810
 2510SOL    HW2 7666   4.526   1.103   4.850  1.6433  0.5005  1.3176
 2511SOL     OW 7667   3.820   0.427   3.235  0.3624 -0.3200  0.3492
 2511SOL    HW1 7668   3.811   0.371   3.158  1.0758 -0.3947  0.3161
 2511SOL    HW2 7669   3.886   0.383   3.289  1.8664  1.0881 -0.2454
 2512SOL     OW 7670   1.209   1.050   3.178  0.0980  0.1714 -0.2885
 2512SOL    HW1 7671   1.141   1.005   3.130  0.9578 -1.2439 -0.2258
 2512SOL    HW2 7672   1.198   1.021   3.269 -1.1940  2.4230  0.3654
 2513SOL     OW 7673   2.683   3.799   2.945 -0.1793  0.0968  0.1349
 2513SOL    HW1 7674   2.661   3.736   3.014  0.2103  0.0369  0.2067
 2513SOL    HW2 7675   2.767   3.768   2.910 -1.1176 -0.8060 -1.4529
 2514SOL     OW 7676   4.716   4.863   2.787 -0.2066  0.2196  0.3423
 2514SOL    HW1 7677   4.810   4.863   2.805 -0.3838  0.2990  1.3460
 2514SOL    HW2 7678   4.699   4.776   2.749  0.2005  0.0320  0.5827
 2515SOL     OW 7679   1.690   5.003   1.006  0.3401  0.1321 -0.1312
 2515SOL    HW1 7680   1.784   4.985   1.011  0.3105  0.2115  0.8804
 2515SOL    HW2 7681   1.683   5.097   1.021 -0.0262 -0.1625  1.7205
 2516SOL     OW 7682   4.465   4.499   0.347 -0.5668 -0.2382 -0.4129
 2516SOL    HW1 7683   4.379   4.497   0.305 -0.5981  3.5418 -0.8947
 2516SOL    HW2 7684   4.453   4.552   0.425  0.8596 -1.8309  0.9753
 2517SOL     OW 7685   4.112   1.428   2.856 -0.0149 -0.0696  0.1732
 2517SOL    HW1 7686   4.022   1.452   2.875  0.2400  0.4348  0.8035
 2517SOL    HW2 7687   4.135   1.364   2.924 -0.2141 -0.9693 -0.5984
 2518SOL     OW 7688   3.120   1.844   4.331 -0.1527 -0.0537 -0.6258
 2518SOL    HW1 7689   3.122   1.748   4.331 -0.1407 -0.0592  0.4212
 2518SOL    HW2 7690   3.188   1.869   4.268  2.2232 -0.7046  1.5044
 2519SOL     OW 7691   1.722   3.533   4.587  0.3364  0.0666 -0.7645
 2519SOL    HW1 7692   1.682   3.589   4.520 -0.4282  1.2340  0.6051
 2519SOL    HW2 7693   1.651   3.474   4.614 -0.0581  1.0736  0.5317
 2520SOL     OW 7694   2.925   4.979   1.832 -0.0904  0.0413  0.4387
 2520SOL    HW1 7695   2.938   4.991   1.926  1.3303  0.0173  0.2631
 2520SOL    HW2 7696   2.849   4.921   1.826 -0.2352  0.0854  1.5664
 2521SOL     OW 7697   0.218   4.890   1.009  0.2045 -0.1827 -0.2508
 2521SOL    HW1 7698   0.275   4.859   1.079 -0.4868  1.1226  0.9494
 2521SOL    HW2 7699   0.193   4.979   1.036  0.2346  0.5158 -2.3607
 2522SOL     OW 7700   2.689   4.480   2.588 -0.1732 -0.5479 -0.5760
 2522SOL    HW1 7701   2.627   4.552   2.580  0.4473  0.0491 -0.1633
 2522SOL    HW2 7702   2.707   4.452   2.498 -1.4750 -1.1279 -0.6793
 2523SOL     OW 7703   0.739   4.921   3.205  0.1957 -0.0731  0.1311
 2523SOL    HW1 7704   0.757   4.967   3.288 -1.6358  0.2269  0.4063
 2523SOL    HW2 7705   0.768   4.983   3.137  0.5810  0.1982  0.5352
 2524SOL     OW 7706   0.866   0.908   4.838  0.0987  0.3079 -0.7277
 2524SOL    HW1 7707   0.827   0.995   4.834 -0.2445  0.3125  1.5678
 2524SOL    HW2 7708   0.910   0.905   4.923  1.2457 -1.3143 -1.3139
 2525SOL     OW 7709   1.162   3.733   3.361 -0.1784  0.7880 -0.1285
 2525SOL    HW1 7710   1.066   3.731   3.356 -0.2756  3.2161 -0.4624
 2525SOL    HW2 7711   1.181   3.787   3.438  0.8620  1.6882 -0.9722
 2526SOL     OW 7712   2.101   3.274   3.810  0.0417  0.0505 -0.2527
 2526SOL    HW1 7713   2.126   3.216   3.883  0.7265  0.2192 -0.3443
 2526SOL    HW2 7714   2.019   3.314   3.839  1.3661  1.7704  1.4257
 2527SOL     OW 7715   1.574   1.518   2.174 -0.2224  0.0570 -0.4399
 2527SOL    HW1 7716   1.554   1.524   2.268  0.0878 -2.2814 -0.1470
 2527SOL    HW2 7717   1.528   1.592   2.134  0.4132  1.6739  1.6505
 2528SOL     OW 7718   4.015   1.573   1.166  0.0446  0.1399 -0.4980
 2528SOL    HW1 7719   4.068   1.495   1.183 -1.3400 -0.5233  0.9997
 2528SOL    HW2 7720   4.056   1.641   1.220 -2.0615 -1.0224  2.8605
 2529SOL     OW 7721   3.227   3.868   1.755 -0.4422  0.9873 -0.3569
 2529SOL    HW1 7722   3.239   3.788   1.807 -0.9564  0.6680 -0.7234
 2529SOL    HW2 7723   3.313   3.885   1.717 -0.7420 -0.4176 -1.7345
 2530SOL     OW 7724   1.261   4.083   2.331 -0.4410 -0.3132 -0.4095
 2530SOL    HW1 7725   1.194   4.150   2.348 -0.6688 -0.9692  1.5637
 2530SOL    HW2 7726   1.245   4.016   2.398  0.5567 -1.7594 -1.5548
 2531SOL     OW 7727   1.753   2.914   4.859 -0.2502  0.0649 -0.7369
 2531SOL    HW1 7728   1.685   2.969   4.897  1.6518  1.8720  0.2822
 2531SOL    HW2 7729   1.757   2.941   4.767  0.6342  1.7396 -0.2619
 2532SOL     OW 7730   0.949   1.458   3.760  0.3969 -0.0248 -0.0858
 2532SOL    HW1 7731   0.976   1.385   3.705 -1.0002 -1.2102  0.7241
 2532SOL    HW2 7732   0.958   1.535   3.704  3.4824 -0.5141 -0.4654
 2533SOL     OW 7733   2.228   0.200   4.046 -0.2321 -0.4322 -0.2466
 2533SOL    HW1 7734   2.313   0.175   4.080 -0.2818  0.3916  0.5216
 2533SOL    HW2 7735   2.244   0.225   3.955  0.2306 -0.8836 -0.2881
 2534SOL     OW 7736   0.892   4.155   2.447  0.3565  0.7633 -0.6922
 2534SOL    HW1 7737   0.957   4.158   2.517 -2.0582 -0.0091  1.7736
 2534SOL    HW2 7738   0.916   4.227   2.389  3.1494  0.7136  0.2493
 2535SOL     OW 7739   4.224   2.755   0.374  0.1513 -0.6649 -0.1146
 2535SOL    HW1 7740   4.306   2.719   0.409 -0.0447 -0.3789  0.6654
 2535SOL    HW2 7741   4.251   2.806   0.297  1.3093  2.7169  2.2831
 2536SOL     OW 7742   3.666   4.686   4.378 -0.3016  0.2007 -0.4111
 2536SOL    HW1 7743   3.661   4.776   4.409  2.2713  0.0487  0.7108
 2536SOL    HW2 7744   3.756   4.676   4.347 -0.8849 -1.6462 -1.6840
 2537SOL     OW 7745   3.310   1.926   0.031  0.2612  1.0063 -0.5405
 2537SOL    HW1 7746   3.282   1.850   0.081  0.4759  1.2781 -0.0038
 2537SOL    HW2 7747   3.279   1.908  -0.059 -2.9549  1.9095  0.2407
 2538SOL     OW 7748   3.711   0.141   4.608  1.0344  0.1700 -0.0017
 2538SOL    HW1 7749   3.670   0.160   4.524 -1.0488  1.2293  1.1507
 2538SOL    HW2 7750   3.639   0.107   4.662  1.7574  1.5552  1.9779
 2539SOL     OW 7751   3.695   4.173   1.757  0.1039  0.2184 -0.6696
 2539SOL    HW1 7752   3.751   4.134   1.689 -0.8903  2.1864 -2.7515
 2539SOL    HW2 7753   3.663   4.098   1.807  1.0591 -1.3102 -2.2260
 2540SOL     OW 7754   2.071   4.394   0.548 -0.3473 -0.5446  0.2885
 2540SOL    HW1 7755   2.077   4.455   0.622 -0.5261 -0.9924  0.6791
 2540SOL    HW2 7756   2.076   4.450   0.470 -0.9249  0.0087  0.6421
 2541SOL     OW 7757   0.078   2.409   4.157 -0.3474 -0.0852  0.2605
 2541SOL    HW1 7758   0.003   2.454   4.119 -0.7743  0.6712  1.9358
 2541SOL    HW2 7759   0.040   2.344   4.215  0.2894 -1.9242 -1.2875
 2542SOL     OW 7760   3.770   2.085   2.437  0.1982  0.0638 -0.1772
 2542SOL    HW1 7761   3.782   2.151   2.505 -1.0531 -2.4744  2.7041
 2542SOL    HW2 7762   3.848   2.030   2.443  0.6297  0.4453 -1.6945
 2543SOL     OW 7763   4.556   2.167   0.504  0.4571  0.2982 -0.5381
 2543SOL    HW1 7764   4.544   2.121   0.420 -1.0113  0.3912 -0.4152
 2543SOL    HW2 7765   4.577   2.098   0.566 -2.1543 -0.3585 -0.2694
 2544SOL     OW 7766   3.016   0.454   0.979  0.2132  0.7463 -0.5347
 2544SOL    HW1 7767   3.063   0.535   0.997  1.3443  0.3947 -1.7834
 2544SOL    HW2 7768   3.018   0.444   0.884 -0.5183 -0.3941 -0.4598
 2545SOL     OW 7769   2.197   1.693   4.133  0.8806  0.5183 -0.5396
 2545SOL    HW1 7770   2.119   1.657   4.091  0.7630 -0.9573  0.8533
 2545SOL    HW2 7771   2.265   1.688   4.066  0.4368 -0.7503 -0.9229
 2546SOL     OW 7772   0.590   0.503   1.930 -0.5573 -0.4162 -0.2316
 2546SOL    HW1 7773   0.601   0.422   1.880 -0.9507 -1.1071  0.7457
 2546SOL    HW2 7774   0.496   0.507   1.948 -0.6326  0.5976 -0.8013
 2547SOL     OW 7775   2.331   3.371   4.539  0.6542  0.1333  0.5121
 2547SOL    HW1 7776   2.349   3.447   4.594  1.2033  1.4532 -1.3871
 2547SOL    HW2 7777   2.252   3.396   4.489  1.0624 -0.3515 -0.4023
 2548SOL     OW 7778   4.457   4.549   2.429 -0.3050  0.6231 -0.1253
 2548SOL    HW1 7779   4.462   4.551   2.333 -1.9370 -1.4288 -0.3312
 2548SOL    HW2 7780   4.389   4.485   2.448  0.9960 -0.1396  2.4574
 2549SOL     OW 7781   2.186   1.383   0.135 -0.1761 -0.0134  0.7860
 2549SOL    HW1 7782   2.152   1.472   0.150 -0.6103  0.0734 -0.6103
 2549SOL    HW2 7783   2.268   1.396   0.087 -0.1606 -0.3612  0.7161
 2550SOL     OW 7784   2.296   1.657   1.856  0.5054  0.4556 -0.1030
 2550SOL    HW1 7785   2.298   1.573   1.810 -0.4436  0.5492 -0.3318
 2550SOL    HW2 7786   2.378   1.658   1.906  0.9067 -0.2528 -0.7111
 2551SOL     OW 7787   0.870   2.628   2.924  0.5057  0.5831  0.2077
 2551SOL    HW1 7788   0.820   2.679   2.988  0.5826  0.9643 -0.0351
 2551SOL    HW2 7789   0.921   2.566   2.978  0.5459  0.8792  0.5153
 2552SOL     OW 7790   4.161   1.700   2.578  0.2145 -0.7043 -0.1124
 2552SOL    HW1 7791   4.117   1.720   2.661 -0.8990 -1.5501 -0.4747
 2552SOL    HW2 7792   4.095   1.653   2.527  1.1330 -0.8543 -1.1899
 2553SOL     OW 7793   1.294   4.870   1.048  0.2134  0.4882  0.1943
 2553SOL    HW1 7794   1.294   4.947   1.104 -0.1868  0.3513  0.3900
 2553SOL    HW2 7795   1.386   4.845   1.041  0.2657  0.5044  0.7958
 2554SOL     OW 7796   4.343   4.034   4.927  0.6458 -0.1045 -0.1297
 2554SOL    HW1 7797   4.335   4.095   4.854  2.4394  1.2069  0.6719
 2554SOL    HW2 7798   4.437   4.012   4.930  0.5577 -0.4239  1.5220
 2555SOL     OW 7799   2.541   1.059   2.914  0.0087  1.0895  0.2120
 2555SOL    HW1 7800   2.514   0.997   2.846  3.4490  0.6156 -0.8893
 2555SOL    HW2 7801   2.531   1.011   2.996 -2.0947  0.9046 -0.0930
 2556SOL     OW 7802   4.362   4.640   1.178 -0.4046 -0.1709  0.0075
 2556SOL    HW1 7803   4.357   4.547   1.155  0.0590  0.1454 -1.5256
 2556SOL    HW2 7804   4.364   4.642   1.273 -3.3243 -1.5947  0.2010
 2557SOL     OW 7805   1.459   0.272   0.087 -0.1876  0.4889 -0.2328
 2557SOL    HW1 7806   1.471   0.180   0.064 -0.7250  0.0520  1.1420
 2557SOL    HW2 7807   1.547   0.308   0.090 -0.0010  0.1512 -1.2419
 2558SOL     OW 7808   4.286   4.346   2.502 -0.5790 -0.4097  0.3352
 2558SOL    HW1 7809   4.338   4.265   2.500  0.5171  0.2878 -1.6087
 2558SOL    HW2 7810   4.196   4.316   2.494 -0.2699 -1.5049  0.7763
 2559SOL     OW 7811   3.049   1.080   4.145  0.1593 -0.8796  0.2328
 2559SOL    HW1 7812   3.103   1.154   4.118  1.1387 -1.7419 -0.2365
 2559SOL    HW2 7813   3.097   1.003   4.114 -0.5985 -1.7313  1.1221
 2560SOL     OW 7814   3.050   3.491   0.811  1.2482  0.1086  0.0962
 2560SOL    HW1 7815   2.965   3.518   0.845  1.0712 -0.8273  0.4176
 2560SOL    HW2 7816   3.080   3.422   0.870  2.4530  0.7412  0.2564
 2561SOL     OW 7817   3.680   2.050   4.825 -0.2092  0.0424 -0.5139
 2561SOL    HW1 7818   3.699   2.076   4.915  0.4428  1.4763 -1.0472
 2561SOL    HW2 7819   3.746   1.984   4.804 -0.5177 -0.4830  0.1202
 2562SOL     OW 7820   0.846   2.969   1.632 -0.3418 -0.5740  0.1097
 2562SOL    HW1 7821   0.929   2.922   1.634 -0.6222 -1.0605  0.4598
 2562SOL    HW2 7822   0.779   2.900   1.635 -0.7551 -0.1514  0.7542
 2563SOL     OW 7823   4.607   0.612   3.778  0.5635  0.5741  0.5806
 2563SOL    HW1 7824   4.584   0.699   3.811  0.2084  1.5983 -2.0780
 2563SOL    HW2 7825   4.692   0.623   3.737  0.2125 -0.1446 -0.3832
 2564SOL     OW 7826   1.064   0.800   0.519  0.1960  0.6850 -0.6107
 2564SOL    HW1 7827   0.992   0.832   0.464  0.3319  2.1090 -0.0060
 2564SOL    HW2 7828   1.096   0.878   0.565 -0.1399 -0.4804  1.7720
 2565SOL     OW 7829   3.683   3.572   3.044  0.0384  0.2264  0.0341
 2565SOL    HW1 7830   3.742   3.532   3.108  0.6593 -0.3842 -0.8978
 2565SOL    HW2 7831   3.605   3.518   3.045  0.0678  0.1904  0.2467
 2566SOL     OW 7832   1.032   4.763   0.398 -0.4640  0.2772 -0.2243
 2566SOL    HW1 7833   0.960   4.825   0.391 -1.0254 -0.1252  1.6181
 2566SOL    HW2 7834   1.060   4.767   0.489  0.1722 -1.4127 -0.3003
 2567SOL     OW 7835   3.100   1.683   3.053 -0.3009  0.2662 -0.6431
 2567SOL    HW1 7836   3.047   1.620   3.004  1.7063 -0.9698 -1.3673
 2567SOL    HW2 7837   3.108   1.758   2.994  0.3084 -0.3429 -1.3696
 2568SOL     OW 7838   2.153   3.186   3.558 -0.0666  0.3438  0.0590
 2568SOL    HW1 7839   2.192   3.107   3.596 -2.1117 -0.0833  1.4252
 2568SOL    HW2 7840   2.127   3.238   3.634 -0.4459  1.4617 -0.8230
 2569SOL     OW 7841   1.693   4.727   2.993 -0.2698  0.2448 -0.9393
 2569SOL    HW1 7842   1.786   4.740   2.978 -0.1527 -0.5159 -0.9409
 2569SOL    HW2 7843   1.671   4.648   2.942 -0.6450 -0.2867  0.0038
 2570SOL     OW 7844   3.288   4.234   0.432  0.2291 -0.0885  0.3125
 2570SOL    HW1 7845   3.310   4.321   0.465 -1.5498  0.1391  0.9734
 2570SOL    HW2 7846   3.231   4.250   0.357 -1.6091 -0.6317  1.5133
 2571SOL     OW 7847   0.130   2.217   0.274  0.0083 -0.0187 -0.0804
 2571SOL    HW1 7848   0.074   2.277   0.324 -0.0071 -1.1471  1.3224
 2571SOL    HW2 7849   0.078   2.193   0.198 -1.4245 -0.9950  1.1629
 2572SOL     OW 7850   2.532   3.551   0.746  0.0409  0.0231  1.0086
 2572SOL    HW1 7851   2.586   3.586   0.816  0.6462  1.6659 -0.2201
 2572SOL    HW2 7852   2.593   3.503   0.690 -0.3182 -0.6766  1.1974
 2573SOL     OW 7853   4.460   0.622   1.587 -0.2377  0.3897 -0.0016
 2573SOL    HW1 7854   4.509   0.552   1.629 -2.1030 -0.0476  1.5682
 2573SOL    HW2 7855   4.527   0.677   1.546  1.5653 -0.1201  2.0837
 2574SOL     OW 7856   3.815   3.549   0.256 -0.4938 -0.4547  0.2992
 2574SOL    HW1 7857   3.892   3.522   0.206 -0.2532 -1.2968  1.1076
 2574SOL    HW2 7858   3.783   3.627   0.210  0.0255 -0.8997 -0.8587
 2575SOL     OW 7859   0.577   3.127   2.120 -0.3591  0.3984  0.0465
 2575SOL    HW1 7860   0.632   3.172   2.184  0.2039 -0.2752  0.0502
 2575SOL    HW2 7861   0.604   3.163   2.035 -0.2155  0.3809  0.0850
 2576SOL     OW 7862   2.543   1.226   2.299 -0.5819  0.1251  0.0023
 2576SOL    HW1 7863   2.477   1.293   2.278  0.7470  1.6350  0.4349
 2576SOL    HW2 7864   2.563   1.186   2.214 -0.0106  1.6391 -0.6159
 2577SOL     OW 7865   2.512   0.072   2.009 -0.2353 -0.4367  0.2035
 2577SOL    HW1 7866   2.446   0.138   2.031  1.0174  1.2435 -0.8366
 2577SOL    HW2 7867   2.481   0.034   1.927  0.1813  0.5197 -0.4093
 2578SOL     OW 7868   2.111   4.995   3.492  0.0897  0.5416  0.0554
 2578SOL    HW1 7869   2.017   4.975   3.484  0.0874  0.4606  0.2891
 2578SOL    HW2 7870   2.128   5.055   3.420 -0.4579  1.7128  0.8649
 2579SOL     OW 7871   1.880   2.075   4.857 -0.0813 -0.6110 -0.3515
 2579SOL    HW1 7872   1.799   2.051   4.812 -1.1611 -0.6562  1.5354
 2579SOL    HW2 7873   1.908   2.156   4.814 -2.9696  1.2972  1.0625
 2580SOL     OW 7874   3.381   0.152   1.360  0.5806 -0.3447  0.1346
 2580SOL    HW1 7875   3.293   0.160   1.397  1.0613 -0.4436  1.3327
 2580SOL    HW2 7876   3.439   0.161   1.435  1.6155  0.2292 -0.7174
 2581SOL     OW 7877   3.858   3.774   2.122  0.3020 -0.0322  0.6078
 2581SOL    HW1 7878   3.933   3.783   2.063 -0.1887  0.8527  0.0934
 2581SOL    HW2 7879   3.891   3.801   2.207  0.6349  0.0998  0.4381
 2582SOL     OW 7880   0.409   0.198   1.361  0.4689  0.1420  0.0841
 2582SOL    HW1 7881   0.443   0.123   1.410 -0.9158 -0.8108 -0.3627
 2582SOL    HW2 7882   0.448   0.191   1.274 -0.8908 -1.0331 -0.4738
 2583SOL     OW 7883   3.525   5.010   2.021 -0.1509 -0.0254  0.6904
 2583SOL    HW1 7884   3.575   4.944   1.972  0.0440  1.4281 -1.1626
 2583SOL    HW2 7885   3.516   4.972   2.109  2.1626 -1.3825  0.4281
 2584SOL     OW 7886   3.668   2.602   1.005 -0.0844  0.7672  0.5250
 2584SOL    HW1 7887   3.620   2.527   1.039  0.2468 -0.4182 -1.4384
 2584SOL    HW2 7888   3.605   2.674   1.007 -0.6242  0.2848  1.8159
 2585SOL     OW 7889   4.036   3.019   3.984 -0.0205  0.2140  0.2307
 2585SOL    HW1 7890   3.942   3.032   3.973  0.4298  1.5682 -2.7349
 2585SOL    HW2 7891   4.066   3.096   4.032 -0.1715  0.7771 -0.5562
 2586SOL     OW 7892   2.236   4.849   2.175  0.0069  0.0900 -0.2578
 2586SOL    HW1 7893   2.225   4.833   2.269  0.3318 -3.7164 -0.7073
 2586SOL    HW2 7894   2.152   4.886   2.148  0.0790  1.7424  1.5508
 2587SOL     OW 7895   4.605   3.185   3.217 -0.5421  0.2663 -0.5920
 2587SOL    HW1 7896   4.524   3.135   3.232  0.2481 -0.9499 -0.2350
 2587SOL    HW2 7897   4.642   3.196   3.305 -0.3450  0.8542 -0.7486
 2588SOL     OW 7898   0.808   2.882   3.083  0.4378  0.2303 -0.2928
 2588SOL    HW1 7899   0.834   2.860   3.172 -0.1046  1.2460  0.1340
 2588SOL    HW2 7900   0.713   2.892   3.087  0.6384  2.8741 -0.3519
 2589SOL     OW 7901   3.694   2.380   0.232 -1.1119  0.2569  0.2337
 2589SOL    HW1 7902   3.703   2.464   0.278 -0.6879  0.3375  0.0129
 2589SOL    HW2 7903   3.783   2.360   0.203 -1.1739 -0.3793  0.4727
 2590SOL     OW 7904   3.011   1.086   3.482  0.5129 -0.3201 -0.1472
 2590SOL    HW1 7905   2.953   1.017   3.449  0.8458 -0.1607 -1.0886
 2590SOL    HW2 7906   3.093   1.040   3.503 -0.2610 -0.7505  2.2590
 2591SOL     OW 7907   3.215   0.624   0.429  0.2512 -0.0161  0.0527
 2591SOL    HW1 7908   3.290   0.581   0.470  1.6737 -0.2583 -2.5600
 2591SOL    HW2 7909   3.248   0.710   0.403 -0.6492  0.2155 -0.3601
 2592SOL     OW 7910   4.229   3.795   3.246  0.3618  0.2289 -0.1896
 2592SOL    HW1 7911   4.281   3.734   3.299  0.8657 -0.9291 -1.9237
 2592SOL    HW2 7912   4.181   3.738   3.186 -0.3065  1.4846 -0.8747
 2593SOL     OW 7913   3.975   4.791   0.168 -0.2657 -0.1927  0.6627
 2593SOL    HW1 7914   3.970   4.782   0.073 -1.8597  1.5099  0.5294
 2593SOL    HW2 7915   4.023   4.873   0.182 -2.4783  1.1012  1.1779
 2594SOL     OW 7916   2.049   4.800   0.401 -0.9394 -0.5626  0.5473
 2594SOL    HW1 7917   2.079   4.891   0.400  2.3100 -1.4372  2.2460
 2594SOL    HW2 7918   2.065   4.768   0.313 -0.2973  0.0106  0.4499
 2595SOL     OW 7919   4.325   3.858   2.428 -0.0121  0.0142  0.2726
 2595SOL    HW1 7920   4.359   3.897   2.347 -0.1095 -0.7770 -0.1550
 2595SOL    HW2 7921   4.231   3.876   2.425 -0.1596 -0.7791 -0.2369
 2596SOL     OW 7922   0.194   0.536   4.749 -0.2638 -0.3320  0.5133
 2596SOL    HW1 7923   0.200   0.557   4.842 -1.3262  0.8840  0.3368
 2596SOL    HW2 7924   0.283   0.513   4.723  0.1361 -0.1500  1.6995
 2597SOL     OW 7925   0.217   1.105   4.179 -0.2064 -0.1477  0.1814
 2597SOL    HW1 7926   0.267   1.161   4.119 -0.3323 -1.0755 -0.8147
 2597SOL    HW2 7927   0.133   1.092   4.135  1.3793 -4.9938 -2.1277
 2598SOL     OW 7928   3.386   0.825   3.883  0.4982  0.2043  0.3538
 2598SOL    HW1 7929   3.337   0.764   3.828  1.2881 -0.2785  0.1756
 2598SOL    HW2 7930   3.466   0.843   3.833  1.8705 -1.2604  1.8909
 2599SOL     OW 7931   2.412   2.179   3.728 -0.0386  0.1768 -0.5546
 2599SOL    HW1 7932   2.443   2.111   3.788  0.1932 -0.9054 -1.8444
 2599SOL    HW2 7933   2.368   2.242   3.784  1.5137  0.0179  0.9452
 2600SOL     OW 7934   4.116   2.396   2.741  0.0902 -0.3607  0.0832
 2600SOL    HW1 7935   4.113   2.358   2.654  0.1201 -0.4955  0.1405
 2600SOL    HW2 7936   4.208   2.390   2.767  0.5466  1.7348 -0.7785
 2601SOL     OW 7937   4.293   3.125   3.193 -0.3157  0.2742  0.1053
 2601SOL    HW1 7938   4.237   3.047   3.192 -1.8155  1.3061 -0.2364
 2601SOL    HW2 7939   4.232   3.198   3.186  1.0351  1.5048  0.6828
 2602SOL     OW 7940   4.456   3.762   3.960  0.0960 -0.1735  0.1325
 2602SOL    HW1 7941   4.369   3.754   3.999 -0.4366  1.6214 -0.5771
 2602SOL    HW2 7942   4.441   3.745   3.867  1.0757 -2.8355  0.3734
 2603SOL     OW 7943   0.311   0.357   3.211 -0.5738  0.7899 -0.2419
 2603SOL    HW1 7944   0.295   0.350   3.305 -1.3811 -0.7005 -0.4633
 2603SOL    HW2 7945   0.340   0.270   3.185  2.4912  1.8596 -0.9262
 2604SOL     OW 7946   4.865   3.084   2.800 -0.2974 -0.1570 -0.0523
 2604SOL    HW1 7947   4.830   3.106   2.886  0.4432  0.8703  0.0144
 2604SOL    HW2 7948   4.849   2.990   2.790  0.4830 -0.5110  1.6296
 2605SOL     OW 7949   1.091   2.620   3.889  0.2451 -0.0743  0.3935
 2605SOL    HW1 7950   1.093   2.579   3.975 -0.3213 -0.9477  0.0129
 2605SOL    HW2 7951   1.064   2.710   3.905  1.3956  0.1431  1.2454
 2606SOL     OW 7952   3.382   2.671   0.628  0.0331  0.0650  0.4394
 2606SOL    HW1 7953   3.299   2.671   0.677 -1.3876 -1.0228 -1.7874
 2606SOL    HW2 7954   3.386   2.757   0.588  1.0118  0.8232  2.0881
 2607SOL     OW 7955   0.149   4.089   0.131  0.1099  0.0509 -1.2189
 2607SOL    HW1 7956   0.168   4.142   0.208  0.2477  1.0156 -1.9007
 2607SOL    HW2 7957   0.211   4.119   0.064  0.7302 -1.5156 -1.3996
 2608SOL     OW 7958   3.075   1.989   2.694  0.9227 -0.0845 -0.1195
 2608SOL    HW1 7959   3.031   2.064   2.734  1.2566 -0.3068  0.6816
 2608SOL    HW2 7960   3.007   1.945   2.643  0.6048  0.4649 -0.1763
 2609SOL     OW 7961   0.271   1.607   4.985  0.2519  0.2598 -1.0401
 2609SOL    HW1 7962   0.332   1.534   4.995 -0.3606  0.0102  2.0983
 2609SOL    HW2 7963   0.324   1.685   5.001 -0.1111  0.0377  1.7914
 2610SOL     OW 7964   1.633   2.371   4.828 -0.3869  0.3488  0.3192
 2610SOL    HW1 7965   1.658   2.280   4.845  0.0691  0.0624 -1.7111
 2610SOL    HW2 7966   1.654   2.417   4.910  2.7972 -0.7014  0.2262
 2611SOL     OW 7967   3.361   2.979   2.860  0.5460  0.0202  0.0338
 2611SOL    HW1 7968   3.314   2.915   2.806  0.1319 -0.9939  1.5496
 2611SOL    HW2 7969   3.403   3.037   2.796  0.6041 -1.5073 -1.3879
 2612SOL     OW 7970   4.668   1.267   3.773  0.2064  0.5285  0.0481
 2612SOL    HW1 7971   4.608   1.328   3.816 -0.6602 -0.5991  0.5101
 2612SOL    HW2 7972   4.752   1.311   3.774 -0.3597  1.6366  0.5321
 2613SOL     OW 7973   4.940   4.437   1.090  0.2522  0.0787 -0.5396
 2613SOL    HW1 7974   4.970   4.356   1.049 -2.1108 -0.1383 -1.9793
 2613SOL    HW2 7975   4.908   4.409   1.176 -1.8907 -0.8553 -1.5698
 2614SOL     OW 7976   1.298   4.396   2.665  0.0995 -0.6644  0.2449
 2614SOL    HW1 7977   1.320   4.426   2.753  3.0364 -1.6628 -0.0339
 2614SOL    HW2 7978   1.382   4.395   2.618 -1.4255  0.5007 -2.8263
 2615SOL     OW 7979   0.876   2.032   2.518 -0.2404  0.0315  0.0030
 2615SOL    HW1 7980   0.824   2.046   2.597 -0.3170  1.9015 -0.3291
 2615SOL    HW2 7981   0.811   2.029   2.447 -0.0221  1.0642 -0.2633
 2616SOL     OW 7982   1.400   3.421   2.656 -0.0084  0.5838 -0.1281
 2616SOL    HW1 7983   1.336   3.352   2.638  0.5844 -0.2182  0.7894
 2616SOL    HW2 7984   1.371   3.460   2.739 -0.1636  1.2582 -0.4839
 2617SOL     OW 7985   3.395   3.329   1.535 -0.0498  0.1672 -0.5224
 2617SOL    HW1 7986   3.471   3.372   1.573 -0.1611  0.5608 -0.7482
 2617SOL    HW2 7987   3.427   3.242   1.511  0.8782  0.9915 -2.4550
 2618SOL     OW 7988   1.792   4.476   1.432 -0.0471 -0.2111  0.2494
 2618SOL    HW1 7989   1.795   4.414   1.505 -2.4206  0.7155  1.2517
 2618SOL    HW2 7990   1.750   4.427   1.361  2.3808 -1.1543 -0.6469
 2619SOL     OW 7991   0.668   2.697   2.329  0.5726  0.2122 -0.2945
 2619SOL    HW1 7992   0.586   2.650   2.341 -0.1599  1.7653  1.2666
 2619SOL    HW2 7993   0.656   2.746   2.248  0.1333  0.0698 -0.3174
 2620SOL     OW 7994   4.235   1.195   0.449  0.3002  0.6649  0.2104
 2620SOL    HW1 7995   4.312   1.140   0.433 -0.6877 -0.5954 -0.3389
 2620SOL    HW2 7996   4.249   1.273   0.394 -0.9367 -1.5781 -3.6193
 2621SOL     OW 7997   1.090   5.005   4.588 -0.3905  0.0217 -0.5345
 2621SOL    HW1 7998   1.109   4.913   4.573 -0.4125 -0.0101 -0.3684
 2621SOL    HW2 7999   1.049   5.008   4.674 -0.2009  0.2116 -0.4479
 2622SOL     OW 8000   3.682   3.949   3.365  0.3366  0.4758  0.0258
 2622SOL    HW1 8001   3.677   3.908   3.279 -2.3155  0.8005 -0.0559
 2622SOL    HW2 8002   3.744   4.021   3.354 -1.4752  1.8303 -2.2469
 2623SOL     OW 8003   0.710   4.514   3.488  0.4148 -0.0974  0.7014
 2623SOL    HW1 8004   0.777   4.498   3.421  0.0363  0.9347  0.0527
 2623SOL    HW2 8005   0.645   4.569   3.444 -0.4598 -0.4215  1.5630
 2624SOL     OW 8006   4.589   0.733   3.049 -0.4769  0.0352  1.2777
 2624SOL    HW1 8007   4.550   0.709   3.133 -2.4274 -2.4123 -0.2023
 2624SOL    HW2 8008   4.566   0.825   3.037 -1.5722 -0.0259  2.6838
 2625SOL     OW 8009   2.378   4.990   3.588  0.4367  0.0939  0.2536
 2625SOL    HW1 8010   2.311   4.924   3.573  0.0912  0.7567 -1.3680
 2625SOL    HW2 8011   2.391   4.990   3.683 -1.6347 -0.2787  0.5915
 2626SOL     OW 8012   2.556   0.034   4.897  0.7140  0.0843  0.3874
 2626SOL    HW1 8013   2.524  -0.047   4.858  2.4010 -2.1907  3.2705
 2626SOL    HW2 8014   2.644   0.045   4.861 -0.3165  2.0937 -1.7790
 2627SOL     OW 8015   1.265   4.076   4.063  0.4194  0.2823 -0.2068
 2627SOL    HW1 8016   1.220   4.026   3.995  0.0698  0.1572  0.1161
 2627SOL    HW2 8017   1.195   4.105   4.121  0.7683 -0.0189  0.3690
 2628SOL     OW 8018   4.319   2.787   2.661  0.4414 -0.1202 -0.0233
 2628SOL    HW1 8019   4.403   2.833   2.670  1.2489 -1.6746  0.9804
 2628SOL    HW2 8020   4.253   2.856   2.669  1.6108  1.0586 -0.1234
 2629SOL     OW 8021   2.644   4.598   0.024  0.3954  0.2841 -0.2779
 2629SOL    HW1 8022   2.664   4.546   0.102 -0.2088  1.3648  0.6315
 2629SOL    HW2 8023   2.564   4.559  -0.011 -1.3172  1.8302  1.6442
 2630SOL     OW 8024   2.238   0.824   2.159 -0.7457 -0.5166  0.8532
 2630SOL    HW1 8025   2.317   0.775   2.135 -0.4025  1.3693 -2.5098
 2630SOL    HW2 8026   2.233   0.817   2.254  2.3444 -2.3594  1.0045
 2631SOL     OW 8027   2.577   1.721   3.812  0.6511  0.8605  0.1853
 2631SOL    HW1 8028   2.670   1.720   3.792  0.5611  0.7675 -0.2282
 2631SOL    HW2 8029   2.548   1.631   3.796  0.5195  0.8543  0.4513
 2632SOL     OW 8030   3.116   0.555   2.093 -0.0378  0.1423 -0.2553
 2632SOL    HW1 8031   3.123   0.550   2.189 -2.5812 -1.3840 -0.0532
 2632SOL    HW2 8032   3.129   0.465   2.063 -4.7301 -0.6456 -0.6993
 2633SOL     OW 8033   0.186   0.474   4.006  0.4478 -0.1529  0.0692
 2633SOL    HW1 8034   0.116   0.535   3.981  1.1455  0.5450 -0.2152
 2633SOL    HW2 8035   0.225   0.447   3.924  1.7956  1.0079  0.2961
 2634SOL     OW 8036   1.994   2.656   3.893 -0.4532 -0.0873  0.2924
 2634SOL    HW1 8037   1.921   2.611   3.851 -1.1813 -0.2423  1.6545
 2634SOL    HW2 8038   1.975   2.749   3.882  0.4012 -0.0716 -1.4173
 2635SOL     OW 8039   4.124   2.566   2.409  0.2696  0.6585 -0.3124
 2635SOL    HW1 8040   4.118   2.661   2.422 -0.1471  0.8235 -1.5932
 2635SOL    HW2 8041   4.089   2.552   2.321 -1.8016 -0.9181  0.6636
 2636SOL     OW 8042   0.782   0.422   2.404 -0.0822 -0.0513 -0.0750
 2636SOL    HW1 8043   0.768   0.477   2.481  1.4233 -1.1032  1.0268
 2636SOL    HW2 8044   0.709   0.359   2.406  1.2713 -1.7383  2.1154
 2637SOL     OW 8045   3.385   4.496   1.020 -0.2740  0.4636 -0.6980
 2637SOL    HW1 8046   3.462   4.449   0.988 -0.2725  1.6521 -2.5683
 2637SOL    HW2 8047   3.415   4.537   1.102 -0.1173 -2.2158  0.6919
 2638SOL     OW 8048   1.827   2.395   4.597  0.1849  0.3812 -0.5993
 2638SOL    HW1 8049   1.793   2.403   4.508 -0.7159 -1.1931 -0.4356
 2638SOL    HW2 8050   1.749   2.403   4.652  0.8332  2.1570  0.1237
 2639SOL     OW 8051   3.843   1.124   0.810  0.3999  0.2139  0.2174
 2639SOL    HW1 8052   3.787   1.152   0.883 -0.5760  0.5156 -0.6170
 2639SOL    HW2 8053   3.801   1.044   0.778 -0.3144  1.1214 -1.2153
 2640SOL     OW 8054   3.363   0.220   4.185  0.0179 -0.0520  0.2240
 2640SOL    HW1 8055   3.408   0.146   4.144 -1.7966 -0.4531 -1.2074
 2640SOL    HW2 8056   3.407   0.297   4.149  1.1499 -0.4107  0.7969
 2641SOL     OW 8057   0.561   0.780   4.049  0.2142 -0.2493 -0.6578
 2641SOL    HW1 8058   0.570   0.833   4.129  0.3604 -0.7604 -0.3344
 2641SOL    HW2 8059   0.499   0.711   4.073 -0.2696 -0.0112 -1.1949
 2642SOL     OW 8060   2.044   2.046   4.561  0.8231  0.4476 -0.1836
 2642SOL    HW1 8061   2.028   2.137   4.587 -0.7613 -0.3567  1.9405
 2642SOL    HW2 8062   2.137   2.032   4.577  1.5262  2.1185 -2.2218
 2643SOL     OW 8063   4.270   4.354   3.149  0.1622 -0.0862 -0.3922
 2643SOL    HW1 8064   4.249   4.442   3.120 -0.7607  0.3301  1.3959
 2643SOL    HW2 8065   4.361   4.358   3.178  0.3883  0.0492 -1.1168
 2644SOL     OW 8066   3.457   2.347   3.657  0.3687  0.1243  0.3333
 2644SOL    HW1 8067   3.526   2.298   3.702 -1.0126 -2.1775  0.1237
 2644SOL    HW2 8068   3.391   2.364   3.725  0.5175  1.1293  0.2435
 2645SOL     OW 8069   1.214   2.773   3.184  0.0260  0.8846 -0.8880
 2645SOL    HW1 8070   1.234   2.865   3.202  2.8002  0.1842  0.2613
 2645SOL    HW2 8071   1.294   2.727   3.209 -1.2284 -1.8411 -1.5768
 2646SOL     OW 8072   1.651   1.239   4.887  0.3105  0.9216  0.1966
 2646SOL    HW1 8073   1.567   1.285   4.884  0.1822  0.7673  1.0389
 2646SOL    HW2 8074   1.631   1.151   4.854  0.2550  1.0435 -0.0965
 2647SOL     OW 8075   1.400   1.359   4.799 -0.1637 -0.0117 -0.2306
 2647SOL    HW1 8076   1.313   1.349   4.760 -0.8402 -0.5004  1.3237
 2647SOL    HW2 8077   1.419   1.453   4.791 -1.4814  0.3656  0.6734
 2648SOL     OW 8078   2.931   2.334   4.974  0.7624 -0.2865  0.5548
 2648SOL    HW1 8079   2.884   2.380   4.905  1.5833 -1.1680 -0.6193
 2648SOL    HW2 8080   2.967   2.404   5.029 -0.9578  0.4043  0.8555
 2649SOL     OW 8081   0.026   1.740   0.858  0.0553  0.2631 -0.6245
 2649SOL    HW1 8082  -0.007   1.828   0.876 -1.0436 -0.4411  1.1516
 2649SOL    HW2 8083   0.054   1.708   0.944  1.5317 -0.7132 -1.4334
 2650SOL     OW 8084   3.869   2.132   1.393  0.3772 -0.2915  0.6662
 2650SOL    HW1 8085   3.914   2.205   1.436  0.3100 -0.1883  0.5633
 2650SOL    HW2 8086   3.788   2.171   1.360  0.0960 -0.5336  1.0716
 2651SOL     OW 8087   2.960   0.807   0.197 -0.3317 -0.4349 -0.4811
 2651SOL    HW1 8088   2.939   0.846   0.112 -0.5172  0.4029 -0.0641
 2651SOL    HW2 8089   2.884   0.826   0.251 -0.1926 -0.9260 -0.1149
 2652SOL     OW 8090   3.895   4.682   0.580 -0.9906 -0.3173  0.3854
 2652SOL    HW1 8091   3.905   4.592   0.549 -0.0613 -0.2949  0.5890
 2652SOL    HW2 8092   3.929   4.681   0.669 -0.6106  0.3178  0.2550
 2653SOL     OW 8093   0.979   0.256   3.181  0.4628  0.6108  0.0974
 2653SOL    HW1 8094   0.913   0.300   3.127  1.0197  1.1999 -0.1178
 2653SOL    HW2 8095   1.061   0.299   3.157  1.0662 -0.7228 -0.3066
 2654SOL     OW 8096  -0.005   1.193   2.375  0.3185  0.1063 -0.4982
 2654SOL    HW1 8097   0.048   1.205   2.296 -0.0388 -0.4410 -0.8299
 2654SOL    HW2 8098   0.020   1.106   2.407  2.0355  1.1473  1.2227
 2655SOL     OW 8099   0.307   1.924   1.240  0.1364  0.3539  0.2779
 2655SOL    HW1 8100   0.243   1.969   1.185 -1.5615 -0.9723  1.0695
 2655SOL    HW2 8101   0.356   1.994   1.283 -0.4358  1.4085 -0.7351
 2656SOL     OW 8102   4.524   2.946   0.330  0.0171 -0.3446 -0.0513
 2656SOL    HW1 8103   4.495   2.856   0.314 -2.8246  0.5293 -0.2311
 2656SOL    HW2 8104   4.497   2.965   0.419 -0.6988  0.7915 -0.4929
 2657SOL     OW 8105   2.675   3.191   2.433  0.2341 -0.5125  0.1523
 2657SOL    HW1 8106   2.676   3.119   2.370 -0.5872  1.7349 -2.6616
 2657SOL    HW2 8107   2.586   3.226   2.427  0.6259  0.7856  1.3551
 2658SOL     OW 8108   1.144   0.559   1.861  1.4592 -0.1510 -0.4335
 2658SOL    HW1 8109   1.071   0.497   1.859 -0.3998  1.9398 -2.1577
 2658SOL    HW2 8110   1.129   0.612   1.939  2.6029 -1.2870  0.5985
 2659SOL     OW 8111   3.826   2.865   0.910  0.4125  0.0159  0.1362
 2659SOL    HW1 8112   3.873   2.817   0.977 -1.2989 -1.8254  0.1275
 2659SOL    HW2 8113   3.809   2.801   0.841  1.3641  1.6240 -1.7086
 2660SOL     OW 8114   3.788   2.723   2.769 -0.3919 -0.6139  0.0010
 2660SOL    HW1 8115   3.883   2.721   2.775 -0.4193 -1.4293  0.3441
 2660SOL    HW2 8116   3.769   2.779   2.694  0.4479 -2.6303 -1.8001
 2661SOL     OW 8117   5.007   4.752   1.121  0.2357  0.0377 -0.7485
 2661SOL    HW1 8118   4.939   4.791   1.066  0.5189 -1.3696 -2.1768
 2661SOL    HW2 8119   5.087   4.760   1.069  0.6865 -0.4870 -0.1387
 2662SOL     OW 8120   3.263   4.205   2.312  0.0702  0.2576  0.2804
 2662SOL    HW1 8121   3.264   4.140   2.242 -0.2397  0.7383 -0.1795
 2662SOL    HW2 8122   3.284   4.288   2.268  0.2373  0.5043  0.8190
 2663SOL     OW 8123   2.585   4.346   1.677  0.0072  0.6560 -0.3118
 2663SOL    HW1 8124   2.641   4.271   1.697 -1.6426 -0.6808 -0.4583
 2663SOL    HW2 8125   2.580   4.395   1.759  1.8271  1.1503 -0.4543
 2664SOL     OW 8126   4.299   1.444   4.401  0.2067 -0.1763 -0.0809
 2664SOL    HW1 8127   4.245   1.523   4.397  1.3564  0.5883 -1.1362
 2664SOL    HW2 8128   4.389   1.475   4.392  0.6721 -1.6239 -0.8712
 2665SOL     OW 8129   2.784   2.748   3.244 -0.1496  0.1667  0.2047
 2665SOL    HW1 8130   2.770   2.678   3.309 -3.8409  0.6838  0.1671
 2665SOL    HW2 8131   2.836   2.813   3.291  1.2250 -1.4586  1.0725
 2666SOL     OW 8132   3.830   2.439   3.086 -0.2818 -0.2009  0.5195
 2666SOL    HW1 8133   3.879   2.386   3.023 -1.5043 -1.4572  0.5613
 2666SOL    HW2 8134   3.744   2.451   3.045 -0.4825  0.5672  1.1380
 2667SOL     OW 8135   1.166   1.479   3.411  0.1240  1.0533 -0.9601
 2667SOL    HW1 8136   1.248   1.480   3.460 -1.6834  3.1853  2.4477
 2667SOL    HW2 8137   1.162   1.392   3.372  2.4149 -0.3737  1.6281
 2668SOL     OW 8138   2.903   1.078   1.685  0.4201 -0.1025  0.1671
 2668SOL    HW1 8139   2.924   1.170   1.699  0.7621  0.0012 -0.9174
 2668SOL    HW2 8140   2.864   1.075   1.598  4.4892 -1.5165 -1.8431
 2669SOL     OW 8141   4.686   3.941   4.617 -0.1407  0.0109 -0.1674
 2669SOL    HW1 8142   4.648   3.856   4.638  1.5729 -1.3493 -2.0529
 2669SOL    HW2 8143   4.776   3.935   4.648 -0.0592  1.2313 -0.1271
 2670SOL     OW 8144   2.567   4.484   4.680  0.5869 -0.5837  0.1272
 2670SOL    HW1 8145   2.539   4.500   4.770  2.0488 -0.7150  0.6293
 2670SOL    HW2 8146   2.519   4.548   4.628 -2.6524 -2.4626  0.5301
 2671SOL     OW 8147   2.239   2.164   4.795 -0.2109 -0.0149 -0.2292
 2671SOL    HW1 8148   2.288   2.211   4.863  1.7629 -2.5657  0.2887
 2671SOL    HW2 8149   2.149   2.193   4.807  0.6560  2.5834  0.8481
 2672SOL     OW 8150   3.078   4.470   4.126 -0.6570  1.0074 -0.0036
 2672SOL    HW1 8151   2.993   4.435   4.154  0.3041 -0.1368  1.7303
 2672SOL    HW2 8152   3.140   4.401   4.150  0.6081  1.0013 -2.9452
 2673SOL     OW 8153   3.822   1.909   0.108 -0.1938  0.0745 -0.1196
 2673SOL    HW1 8154   3.739   1.949   0.084 -0.6428 -0.8914 -0.2216
 2673SOL    HW2 8155   3.808   1.878   0.198 -0.3722 -1.1828 -0.5677
 2674SOL     OW 8156   4.690   2.670   2.870  0.0233 -0.2099 -0.1710
 2674SOL    HW1 8157   4.643   2.601   2.918  1.3838 -0.0558  1.4664
 2674SOL    HW2 8158   4.700   2.635   2.782 -2.8414 -0.3717 -0.5486
 2675SOL     OW 8159   3.411   4.852   2.557 -0.5432  0.3523  0.0115
 2675SOL    HW1 8160   3.411   4.816   2.646 -0.1896  1.1184  0.3254
 2675SOL    HW2 8161   3.321   4.884   2.544 -0.1689  1.7318  0.7114
 2676SOL     OW 8162   3.256   4.527   3.597 -0.4964 -0.6251  0.1696
 2676SOL    HW1 8163   3.212   4.443   3.586 -2.9042  0.2063  2.4081
 2676SOL    HW2 8164   3.191   4.584   3.638  1.6929  1.7142  0.7155
 2677SOL     OW 8165   1.023   1.586   4.893 -0.1910  0.3418 -0.2601
 2677SOL    HW1 8166   1.073   1.631   4.824 -2.0047  2.2391 -0.4427
 2677SOL    HW2 8167   0.938   1.567   4.852 -1.2293  1.3161  1.3394
 2678SOL     OW 8168   1.740   1.890   2.791  0.1462  1.0070 -0.2009
 2678SOL    HW1 8169   1.652   1.856   2.807  0.1712  0.7884 -0.5289
 2678SOL    HW2 8170   1.754   1.953   2.861  1.2268 -1.6849  2.1891
 2679SOL     OW 8171   2.530   0.070   0.708 -0.4861 -0.6850  0.1899
 2679SOL    HW1 8172   2.589   0.079   0.634  0.0601  4.2001  0.8691
 2679SOL    HW2 8173   2.587   0.067   0.785 -1.0119  0.2556  0.6466
 2680SOL     OW 8174   2.228   0.318   4.294  0.3853  0.1003  0.4221
 2680SOL    HW1 8175   2.199   0.263   4.367  1.5805  0.6391  1.3427
 2680SOL    HW2 8176   2.224   0.261   4.217 -0.6984 -0.5411  0.9334
 2681SOL     OW 8177   3.559   0.121   3.025 -0.6989 -0.6933 -0.1537
 2681SOL    HW1 8178   3.545   0.027   3.010 -0.9239 -0.5080 -1.1359
 2681SOL    HW2 8179   3.506   0.164   2.959 -1.7986  0.1747  1.2309
 2682SOL     OW 8180   2.998   4.214   2.729  0.5544  0.8559 -0.5437
 2682SOL    HW1 8181   2.967   4.143   2.672 -1.1459  0.8711  0.3072
 2682SOL    HW2 8182   2.982   4.294   2.678  1.9379  0.6986 -1.2700
 2683SOL     OW 8183   2.358   3.714   1.005  0.6143  0.0260  0.0565
 2683SOL    HW1 8184   2.355   3.737   0.912  2.0739 -1.0192 -0.2970
 2683SOL    HW2 8185   2.431   3.652   1.011 -0.7335 -1.5060  1.5522
 2684SOL     OW 8186   3.373   0.891   2.481  0.2200  0.0233 -0.3909
 2684SOL    HW1 8187   3.425   0.830   2.429  0.7363  0.4294 -0.3609
 2684SOL    HW2 8188   3.438   0.949   2.521 -0.2890  0.9436 -0.8698
 2685SOL     OW 8189   4.314   2.755   2.133 -0.2211 -0.4148 -0.4542
 2685SOL    HW1 8190   4.225   2.753   2.169  0.1485  1.0107  0.6259
 2685SOL    HW2 8191   4.371   2.741   2.209  0.5296  1.0351 -0.7176
 2686SOL     OW 8192   3.258   4.810   3.474 -0.0858  0.0227  0.2505
 2686SOL    HW1 8193   3.184   4.828   3.532 -0.0750 -0.8415  0.5428
 2686SOL    HW2 8194   3.240   4.723   3.438  1.7250 -1.0926  1.8549
 2687SOL     OW 8195   2.551   1.592   1.634  0.2994 -0.3856  0.3054
 2687SOL    HW1 8196   2.471   1.584   1.583  1.0582  1.8211 -1.4124
 2687SOL    HW2 8197   2.538   1.672   1.685  0.6492 -1.0916  1.5369
 2688SOL     OW 8198   4.239   0.052   1.872 -0.0100  0.1578  0.2676
 2688SOL    HW1 8199   4.297   0.101   1.930  0.9256  0.2759 -0.7365
 2688SOL    HW2 8200   4.200   0.118   1.815  0.3302 -0.1202 -0.2974
 2689SOL     OW 8201   4.884   3.130   0.887 -0.1367  0.2013  0.1988
 2689SOL    HW1 8202   4.942   3.054   0.887 -0.5904 -0.1880 -1.6984
 2689SOL    HW2 8203   4.868   3.148   0.980 -0.9706 -2.7461  0.7230
 2690SOL     OW 8204   2.058   1.607   0.512 -0.0388  0.3841  0.6004
 2690SOL    HW1 8205   2.042   1.532   0.454  1.2960  1.2914 -1.0648
 2690SOL    HW2 8206   2.010   1.679   0.471  0.5235  0.9340  0.8893
 2691SOL     OW 8207  -0.004   1.802   4.147  0.1026  0.4570 -0.9610
 2691SOL    HW1 8208  -0.003   1.854   4.066 -1.1271  1.0415 -0.6187
 2691SOL    HW2 8209   0.083   1.817   4.185  0.8460 -0.1500 -2.3530
 2692SOL     OW 8210   2.593   0.492   3.227  0.2736 -0.3036  0.3857
 2692SOL    HW1 8211   2.524   0.513   3.290 -0.0961  1.1628 -0.4412
 2692SOL    HW2 8212   2.560   0.416   3.180 -1.5109  1.1749 -0.9289
 2693SOL     OW 8213   1.390   0.492   3.400 -0.3301 -0.7053  0.5964
 2693SOL    HW1 8214   1.388   0.487   3.495 -0.9063 -0.0593  0.6287
 2693SOL    HW2 8215   1.468   0.442   3.374  0.6087  0.2448  1.4867
 2694SOL     OW 8216   3.294   1.378   1.201  0.4704 -0.1897  0.4896
 2694SOL    HW1 8217   3.318   1.358   1.110 -1.9800 -0.5449 -0.1503
 2694SOL    HW2 8218   3.248   1.299   1.230  0.8419  0.1019  1.9038
 2695SOL     OW 8219   2.364   2.743   3.376 -0.4373  0.0183  0.0784
 2695SOL    HW1 8220   2.440   2.708   3.421 -1.7222 -1.4611  1.1892
 2695SOL    HW2 8221   2.308   2.778   3.445 -0.6564  1.3958 -0.7450
 2696SOL     OW 8222   4.968   3.692   3.362  0.1595 -0.1789  0.0799
 2696SOL    HW1 8223   4.934   3.642   3.436 -2.3725 -0.0583 -0.8918
 2696SOL    HW2 8224   4.985   3.626   3.295 -1.8175  0.0609 -0.7105
 2697SOL     OW 8225   4.865   3.250   2.062  0.6450  0.3458  0.3202
 2697SOL    HW1 8226   4.841   3.293   2.144  1.6272  2.1940 -0.3102
 2697SOL    HW2 8227   4.841   3.313   1.994  1.5991 -0.3311 -0.6819
 2698SOL     OW 8228   2.390   4.873   1.412 -0.0275  0.2931  0.2138
 2698SOL    HW1 8229   2.396   4.854   1.319 -0.5984  0.8100  0.0649
 2698SOL    HW2 8230   2.471   4.920   1.433 -1.7730  4.2683 -1.0432
 2699SOL     OW 8231   1.255   4.203   3.593  0.0825 -0.0841  0.0866
 2699SOL    HW1 8232   1.209   4.276   3.636  1.9957  1.6878 -0.7445
 2699SOL    HW2 8233   1.304   4.161   3.663 -0.0623  0.1903  0.3545
 2700SOL     OW 8234   3.795   1.844   2.077  0.1463  0.1269 -0.3399
 2700SOL    HW1 8235   3.786   1.768   2.019  1.5379 -1.6142  1.5997
 2700SOL    HW2 8236   3.742   1.821   2.154  1.2448  0.7202  0.6231
 2701SOL     OW 8237   1.040   3.409   2.854  0.1851  0.4179  0.1764
 2701SOL    HW1 8238   0.984   3.365   2.919 -0.6541  1.3080  0.0839
 2701SOL    HW2 8239   1.052   3.344   2.785 -0.5861  0.1357  0.2934
 2702SOL     OW 8240   2.403   4.075   0.503 -0.2952 -0.6135 -0.0720
 2702SOL    HW1 8241   2.435   4.101   0.589 -0.4440  0.9511 -0.4557
 2702SOL    HW2 8242   2.308   4.083   0.510 -0.3709 -1.3690 -0.1280
 2703SOL     OW 8243   4.455   3.352   3.387 -0.7575  0.3062  0.4610
 2703SOL    HW1 8244   4.379   3.302   3.358  1.0118 -1.5824 -1.2113
 2703SOL    HW2 8245   4.480   3.311   3.470 -0.0923 -0.7797 -0.2564
 2704SOL     OW 8246   3.937   0.801   0.848 -0.4569 -0.2200 -0.0916
 2704SOL    HW1 8247   3.913   0.788   0.756 -0.3171  0.8622 -0.2953
 2704SOL    HW2 8248   3.853   0.800   0.894 -0.6022  0.0321 -0.3422
 2705SOL     OW 8249   0.941   0.364   1.867  0.3175 -0.1002  0.2061
 2705SOL    HW1 8250   0.878   0.365   1.938 -2.8827  1.2255 -2.3848
 2705SOL    HW2 8251   0.936   0.275   1.831 -1.6853  0.4900 -1.1506
 2706SOL     OW 8252   1.877   4.260   1.121 -0.0716  0.1163 -0.0130
 2706SOL    HW1 8253   1.965   4.298   1.129 -0.0496  0.2810 -0.9702
 2706SOL    HW2 8254   1.853   4.237   1.211  0.7175  0.5910  0.3300
 2707SOL     OW 8255   4.161   4.957   1.104 -0.0700 -0.1451  0.4630
 2707SOL    HW1 8256   4.256   4.950   1.091 -0.0481  0.1027  0.4852
 2707SOL    HW2 8257   4.131   4.866   1.106  0.2071 -0.2350  0.7461
 2708SOL     OW 8258   3.300   3.470   0.999  0.8524  0.4237 -0.0129
 2708SOL    HW1 8259   3.268   3.557   0.976  0.3129  0.2954  0.2280
 2708SOL    HW2 8260   3.366   3.450   0.932 -0.3712  0.2408 -1.2217
 2709SOL     OW 8261   4.469   2.902   3.693  0.1178  0.1372 -0.3325
 2709SOL    HW1 8262   4.373   2.903   3.700  0.2536 -0.7453  2.7481
 2709SOL    HW2 8263   4.498   2.979   3.742  1.0372 -0.2685 -0.2200
 2710SOL     OW 8264   2.062   0.862   4.440 -0.1777  0.5644  0.5530
 2710SOL    HW1 8265   2.132   0.824   4.494 -0.2689  1.1981  1.1337
 2710SOL    HW2 8266   1.988   0.871   4.500 -1.4458 -1.8675 -0.4781
 2711SOL     OW 8267   3.036   4.151   0.193  0.6031 -0.0468  0.1927
 2711SOL    HW1 8268   3.104   4.219   0.188  1.2603 -0.7153  0.0067
 2711SOL    HW2 8269   2.964   4.186   0.142  0.2450  1.3025  1.5283
 2712SOL     OW 8270   1.193   0.376   3.695  0.0577 -0.3509 -0.6452
 2712SOL    HW1 8271   1.260   0.310   3.714 -0.0833 -0.7425 -1.4621
 2712SOL    HW2 8272   1.242   0.455   3.672  0.2575 -0.8311 -1.9254
 2713SOL     OW 8273   4.484   0.532   1.290  0.6182  0.3972 -0.6203
 2713SOL    HW1 8274   4.574   0.543   1.258  1.1078  0.5812  0.7450
 2713SOL    HW2 8275   4.490   0.552   1.384 -0.9046  0.6730 -0.5673
 2714SOL     OW 8276   3.123   4.328   3.852  0.4256  0.0758  0.1115
 2714SOL    HW1 8277   3.145   4.348   3.943 -1.4225  0.6308  0.4747
 2714SOL    HW2 8278   3.107   4.414   3.812  0.5054 -0.2108 -0.5480
 2715SOL     OW 8279   1.879   2.944   3.867 -0.8303  0.5809 -0.2822
 2715SOL    HW1 8280   1.789   2.978   3.868 -1.1068 -0.1203 -0.5906
 2715SOL    HW2 8281   1.886   2.897   3.784  0.0222  1.1245 -0.5338
 2716SOL     OW 8282   4.471   2.662   0.422 -0.0935  0.0814  0.1675
 2716SOL    HW1 8283   4.550   2.628   0.380  0.4740 -0.7344  1.8016
 2716SOL    HW2 8284   4.434   2.586   0.467 -1.2761  0.6770  0.2373
 2717SOL     OW 8285   0.358   1.529   4.504  0.0353 -0.2378  0.2844
 2717SOL    HW1 8286   0.317   1.453   4.464  0.4311  0.0188 -0.6248
 2717SOL    HW2 8287   0.291   1.598   4.496  0.0157 -0.2552  0.2979
 2718SOL     OW 8288   3.536   0.215   4.395 -0.6689  0.3673 -0.5603
 2718SOL    HW1 8289   3.461   0.214   4.336  0.5448  0.3943 -2.1876
 2718SOL    HW2 8290   3.600   0.270   4.349 -0.5293  2.4548  1.9342
 2719SOL     OW 8291   4.772   2.847   0.088  0.1786 -0.0371  0.1510
 2719SOL    HW1 8292   4.868   2.840   0.082  0.5400  3.7085 -0.2882
 2719SOL    HW2 8293   4.753   2.817   0.177  1.9280  0.3474  0.7057
 2720SOL     OW 8294   1.466   5.048   0.579 -0.4572 -0.5461  0.0470
 2720SOL    HW1 8295   1.467   4.972   0.521  2.2107 -0.5456 -0.0119
 2720SOL    HW2 8296   1.520   5.022   0.653 -1.5281  0.4596  1.2225
 2721SOL     OW 8297   3.918   1.971   1.109 -0.5791  0.2675  1.1514
 2721SOL    HW1 8298   3.885   2.060   1.097 -0.5080  0.2009  0.4613
 2721SOL    HW2 8299   3.880   1.943   1.193 -2.1390  0.2567  0.4817
 2722SOL     OW 8300   1.108   1.759   4.233 -0.0487  0.2741 -0.5414
 2722SOL    HW1 8301   1.196   1.761   4.195 -0.3173  0.3295 -1.1761
 2722SOL    HW2 8302   1.070   1.677   4.201 -0.5626  0.7048 -1.0557
 2723SOL     OW 8303   0.501   1.652   2.374  0.0080  0.2361  0.3298
 2723SOL    HW1 8304   0.428   1.713   2.369 -1.4646 -1.0678  3.5243
 2723SOL    HW2 8305   0.570   1.701   2.420  0.2451  0.6529 -0.4512
 2724SOL     OW 8306   3.794   0.263   0.497  0.1292 -0.6891 -0.2871
 2724SOL    HW1 8307   3.814   0.259   0.591 -0.1443 -0.2738 -0.2076
 2724SOL    HW2 8308   3.774   0.173   0.473 -0.8283 -0.6438  0.2897
 2725SOL     OW 8309   4.002   4.212   3.119  0.0435 -0.0037 -0.2298
 2725SOL    HW1 8310   3.986   4.262   3.039  1.5225  1.1501  0.1546
 2725SOL    HW2 8311   4.033   4.127   3.088  0.1805  0.2771 -0.8744
 2726SOL     OW 8312   2.720   1.934   2.300 -0.1588 -0.2170 -0.3328
 2726SOL    HW1 8313   2.713   1.975   2.386  0.7989 -2.4934  0.9179
 2726SOL    HW2 8314   2.662   1.858   2.303  0.0543 -0.4708 -1.6159
 2727SOL     OW 8315   0.651   2.879   4.287 -0.6397 -0.1212  0.2932
 2727SOL    HW1 8316   0.624   2.788   4.288 -0.7198 -0.0945  0.8750
 2727SOL    HW2 8317   0.571   2.929   4.303 -0.2865 -0.0420  2.0191
 2728SOL     OW 8318   0.254   3.020   4.759 -0.0867 -0.1840 -0.7285
 2728SOL    HW1 8319   0.219   3.016   4.847  1.9620 -1.0974  0.1293
 2728SOL    HW2 8320   0.204   2.954   4.710  1.2771 -2.5564  0.8420
 2729SOL     OW 8321   3.102   3.213   3.352  0.1602 -0.1621 -0.4599
 2729SOL    HW1 8322   3.133   3.223   3.442 -0.9768  0.1984 -0.0843
 2729SOL    HW2 8323   3.109   3.119   3.334  0.2696 -0.2527  0.0509
 2730SOL     OW 8324   4.912   4.286   2.832  0.0987  0.2581  0.2652
 2730SOL    HW1 8325   4.884   4.241   2.752 -0.7224 -1.4673  1.4501
 2730SOL    HW2 8326   4.836   4.340   2.856 -0.8862 -1.5245  1.4297
 2731SOL     OW 8327   1.420   2.144   4.296 -0.1971  0.3250 -0.3440
 2731SOL    HW1 8328   1.463   2.074   4.345 -0.1498 -0.5021 -1.5198
 2731SOL    HW2 8329   1.491   2.203   4.272  0.0829 -0.2476 -0.9819
 2732SOL     OW 8330   4.611   1.007   0.668 -0.2567  0.0189  0.4098
 2732SOL    HW1 8331   4.564   1.090   0.672 -0.4424  0.4361 -4.6265
 2732SOL    HW2 8332   4.543   0.941   0.658  0.0215 -0.4217  1.2670
 2733SOL     OW 8333   4.978   2.197   4.516 -0.5155  0.0903 -0.2490
 2733SOL    HW1 8334   4.896   2.211   4.564 -0.8967  2.2621 -1.4012
 2733SOL    HW2 8335   4.951   2.191   4.424  0.5322 -0.2277 -0.5486
 2734SOL     OW 8336   1.573   3.141   4.884  0.5685  0.3031  0.7959
 2734SOL    HW1 8337   1.503   3.121   4.823  2.4344 -1.3208 -0.9556
 2734SOL    HW2 8338   1.573   3.237   4.891 -1.5539  0.3520  0.6039
 2735SOL     OW 8339   0.549   3.116   0.061 -0.0642 -0.0782 -0.3189
 2735SOL    HW1 8340   0.477   3.097   0.122 -0.6479  0.0217 -0.9716
 2735SOL    HW2 8341   0.627   3.083   0.106 -0.3936  0.5652  0.7715
 2736SOL     OW 8342   2.462   2.170   0.015 -0.8158 -0.1292 -0.4599
 2736SOL    HW1 8343   2.508   2.179   0.099 -1.3652  1.8035 -0.3214
 2736SOL    HW2 8344   2.491   2.086  -0.019  3.3731  1.1488 -0.6642
 2737SOL     OW 8345   1.958   0.544   4.715  0.1821 -0.9104  1.1061
 2737SOL    HW1 8346   2.007   0.534   4.633 -0.0712  1.5987  0.5496
 2737SOL    HW2 8347   2.020   0.587   4.774 -1.1187  2.2194  0.4256
 2738SOL     OW 8348   0.827   4.966   0.899 -0.4135  0.7973  0.1314
 2738SOL    HW1 8349   0.910   4.998   0.864  0.1385  1.1907  1.7268
 2738SOL    HW2 8350   0.834   4.978   0.993 -3.1426  3.0069  0.1910
 2739SOL     OW 8351   1.500   1.964   3.622  0.4405  0.2391  0.0461
 2739SOL    HW1 8352   1.500   1.887   3.564  0.0012  1.0965 -1.1420
 2739SOL    HW2 8353   1.409   1.974   3.648  0.0537  1.6679 -1.6725
 2740SOL     OW 8354   0.340   0.268   1.953  0.0148 -0.1608  0.2677
 2740SOL    HW1 8355   0.306   0.326   1.884 -2.2160 -0.5422  0.9467
 2740SOL    HW2 8356   0.429   0.247   1.925 -0.6062  0.1484 -2.2116
 2741SOL     OW 8357   4.069   2.720   1.020 -0.3984  0.0984  0.1142
 2741SOL    HW1 8358   4.066   2.625   1.009 -0.3997  0.1997 -0.8563
 2741SOL    HW2 8359   4.159   2.738   1.049 -1.1557 -0.4334  3.0565
 2742SOL     OW 8360   4.949   4.292   0.856 -0.0204 -0.1426 -0.3377
 2742SOL    HW1 8361   4.895   4.265   0.782  0.9084  1.1660 -1.5266
 2742SOL    HW2 8362   4.925   4.383   0.872 -0.1277 -0.3704  0.9331
 2743SOL     OW 8363   2.108   2.754   2.303  0.2864 -0.2235 -0.1593
 2743SOL    HW1 8364   2.018   2.786   2.290 -0.0160 -0.9688  0.0336
 2743SOL    HW2 8365   2.129   2.777   2.393  0.5142  0.4759 -0.3847
 2744SOL     OW 8366   1.800   0.418   2.907 -0.1758  0.0238 -0.7680
 2744SOL    HW1 8367   1.749   0.486   2.952 -2.6932 -1.3678 -1.3164
 2744SOL    HW2 8368   1.775   0.337   2.951  0.5651 -0.8718 -1.9451
 2745SOL     OW 8369   3.925   2.132   4.201  0.0314 -0.4474  0.3067
 2745SOL    HW1 8370   3.841   2.086   4.208  0.3645 -1.3470 -1.0997
 2745SOL    HW2 8371   3.990   2.065   4.222  0.4590 -0.2152 -0.2403
 2746SOL     OW 8372   1.506   4.681   0.075  0.4581  0.3570 -0.5564
 2746SOL    HW1 8373   1.582   4.722   0.035  0.4421  1.9274  0.9013
 2746SOL    HW2 8374   1.441   4.677   0.005  0.8686  1.8147 -1.0507
 2747SOL     OW 8375   0.680   3.799   2.018 -0.3198 -0.0204  0.4502
 2747SOL    HW1 8376   0.588   3.784   1.996 -0.0747 -0.6730 -0.1952
 2747SOL    HW2 8377   0.679   3.818   2.112 -1.3000  1.8321  0.1174
 2748SOL     OW 8378   4.401   4.923   1.622 -0.2375 -0.1285  0.5417
 2748SOL    HW1 8379   4.339   4.860   1.658 -1.3145  1.7534  2.1284
 2748SOL    HW2 8380   4.467   4.933   1.690  0.7454 -0.5935 -0.3101
 2749SOL     OW 8381   3.140   4.313   0.774 -0.0880  0.2004  0.1666
 2749SOL    HW1 8382   3.201   4.386   0.763  0.1667 -0.0927 -0.3749
 2749SOL    HW2 8383   3.059   4.342   0.733 -0.3481  0.6248  0.9621
 2750SOL     OW 8384   3.011   3.361   3.593 -0.0028  0.1664 -0.2472
 2750SOL    HW1 8385   2.967   3.426   3.647 -1.4850 -2.4727  1.9264
 2750SOL    HW2 8386   3.079   3.411   3.547 -0.2771  3.0177  2.1511
 2751SOL     OW 8387   0.636   4.577   2.622 -0.3528  0.0447 -0.0743
 2751SOL    HW1 8388   0.640   4.503   2.683 -2.1396  0.0853  0.1474
 2751SOL    HW2 8389   0.577   4.548   2.553  0.7430  0.4391 -1.2070
 2752SOL     OW 8390   0.575   1.517   4.101 -0.3499 -0.4760 -0.1647
 2752SOL    HW1 8391   0.497   1.571   4.089 -1.6611 -2.5024 -1.3141
 2752SOL    HW2 8392   0.571   1.488   4.192 -0.8316 -0.4229 -0.1675
 2753SOL     OW 8393   2.164   2.506   2.107  0.8070  0.6750 -0.6148
 2753SOL    HW1 8394   2.102   2.516   2.034  1.4183  0.0937 -1.2265
 2753SOL    HW2 8395   2.160   2.589   2.153 -1.7108  0.1089  0.3957
 2754SOL     OW 8396   1.197   1.182   1.271  0.0119 -0.0794  0.3908
 2754SOL    HW1 8397   1.131   1.113   1.282 -0.0277 -0.1587 -0.2529
 2754SOL    HW2 8398   1.253   1.174   1.347 -0.3597 -0.4220  0.6364
 2755SOL     OW 8399   0.741   2.005   2.281 -0.1711  0.0221 -0.2521
 2755SOL    HW1 8400   0.745   2.098   2.259  1.7307  0.5770  2.0547
 2755SOL    HW2 8401   0.649   1.989   2.298 -0.4962  1.5793 -0.3445
 2756SOL     OW 8402   3.258   3.281   3.108 -0.3532 -0.2181  0.2185
 2756SOL    HW1 8403   3.255   3.260   3.202 -0.0430  0.1368  0.3095
 2756SOL    HW2 8404   3.171   3.315   3.088 -0.3627 -0.1246  0.4181
 2757SOL     OW 8405   4.131   2.337   3.785  0.1198 -0.0994  0.4035
 2757SOL    HW1 8406   4.073   2.272   3.824  1.0307 -1.4628 -0.4122
 2757SOL    HW2 8407   4.092   2.356   3.700  0.9398 -1.1992 -0.2491
 2758SOL     OW 8408   4.487   3.113   3.916  0.3486  0.1641 -0.2162
 2758SOL    HW1 8409   4.448   3.196   3.941 -2.0698 -0.7746 -0.6579
 2758SOL    HW2 8410   4.483   3.059   3.995  0.7051  0.0261 -0.2872
 2759SOL     OW 8411   1.547   5.036   0.027  0.6516 -0.3048  0.3906
 2759SOL    HW1 8412   1.620   5.040   0.089  0.8215 -0.2466  0.1865
 2759SOL    HW2 8413   1.577   4.980  -0.044 -0.4251 -2.4270  1.5029
 2760SOL     OW 8414   2.983   1.032   4.431  0.3269 -0.3988 -0.0151
 2760SOL    HW1 8415   3.009   1.044   4.340  1.7143  0.6526  0.4804
 2760SOL    HW2 8416   2.985   1.121   4.468  0.5583 -0.8995  1.2232
 2761SOL     OW 8417   4.357   4.211   3.678 -0.6891  0.0836 -0.6977
 2761SOL    HW1 8418   4.336   4.230   3.587  3.1544 -0.9111 -1.9665
 2761SOL    HW2 8419   4.334   4.118   3.689 -1.4150  0.2774 -0.5384
 2762SOL     OW 8420   0.029   0.295   4.833  0.3156  0.4664 -1.0752
 2762SOL    HW1 8421  -0.051   0.290   4.780 -0.7409  0.6516  0.4365
 2762SOL    HW2 8422   0.067   0.380   4.811 -0.9222  1.2033 -0.4535
 2763SOL     OW 8423   3.608   4.530   0.655  0.5682 -0.3966 -0.5718
 2763SOL    HW1 8424   3.631   4.537   0.563  2.0606 -0.0098 -0.2039
 2763SOL    HW2 8425   3.667   4.462   0.689 -0.7361 -1.3357 -0.1270
 2764SOL     OW 8426   1.350   2.557   2.209  0.0423 -0.1691 -0.0907
 2764SOL    HW1 8427   1.383   2.577   2.122  0.9009 -0.3586  0.1767
 2764SOL    HW2 8428   1.389   2.624   2.265 -0.8261  0.1950  0.0943
 2765SOL     OW 8429   4.767   1.839   4.198  1.0692 -0.1754 -0.2911
 2765SOL    HW1 8430   4.731   1.758   4.235  2.0302 -0.4905 -0.0288
 2765SOL    HW2 8431   4.859   1.820   4.183  1.0166  0.4319 -1.4941
 2766SOL     OW 8432   4.135   3.653   3.520  0.0019  0.3681 -0.3877
 2766SOL    HW1 8433   4.200   3.623   3.456  1.3191 -1.0972  1.5112
 2766SOL    HW2 8434   4.058   3.599   3.504  1.1439 -1.7234  0.6900
 2767SOL     OW 8435   1.951   4.721   2.960 -0.1408 -0.2477  0.2978
 2767SOL    HW1 8436   2.023   4.661   2.978 -0.1045 -0.3828 -0.2690
 2767SOL    HW2 8437   1.988   4.785   2.899  0.0944  0.9135  1.6039
 2768SOL     OW 8438   3.329   3.290   1.216 -0.9617 -0.3944  0.1655
 2768SOL    HW1 8439   3.366   3.336   1.291 -2.3486 -1.5667  1.6445
 2768SOL    HW2 8440   3.311   3.358   1.152  2.5041  0.3635 -0.1605
 2769SOL     OW 8441   1.980   3.077   2.081 -0.1595 -0.1393  1.4448
 2769SOL    HW1 8442   2.052   3.111   2.028 -0.9276  0.7027  0.9285
 2769SOL    HW2 8443   2.016   3.072   2.170 -0.0266  2.1199  1.5795
 2770SOL     OW 8444   4.410   4.488   4.887  0.3148 -0.7513 -0.2241
 2770SOL    HW1 8445   4.485   4.482   4.946  0.7616 -0.7088 -0.7756
 2770SOL    HW2 8446   4.344   4.537   4.936  0.6257 -0.8392  0.2887
 2771SOL     OW 8447   1.349   0.262   3.965  0.0353  0.0796  0.7030
 2771SOL    HW1 8448   1.385   0.218   3.888 -1.5124 -1.2585  0.6875
 2771SOL    HW2 8449   1.351   0.196   4.033  0.8225  1.0690  1.6699
 2772SOL     OW 8450   3.108   0.275   0.093 -0.4684  0.3468 -0.3889
 2772SOL    HW1 8451   3.099   0.325   0.174  1.7205  1.5060 -0.7813
 2772SOL    HW2 8452   3.028   0.296   0.044 -1.8115 -0.3410  1.3788
 2773SOL     OW 8453   4.075   2.457   3.538  0.0533 -0.1520  0.0268
 2773SOL    HW1 8454   4.076   2.550   3.559 -4.2846  0.4331 -1.3082
 2773SOL    HW2 8455   4.103   2.453   3.447 -1.3990  0.1897 -0.4728
 2774SOL     OW 8456   1.643   1.990   4.700 -0.1100 -0.2712  0.7722
 2774SOL    HW1 8457   1.632   1.974   4.606  2.1999  1.4347  0.1260
 2774SOL    HW2 8458   1.556   2.013   4.731 -0.6215  0.9426 -1.3724
 2775SOL     OW 8459   3.654   3.074   0.929  0.1192 -0.3748  0.2145
 2775SOL    HW1 8460   3.721   3.007   0.913 -0.0838 -0.5680  0.1617
 2775SOL    HW2 8461   3.593   3.032   0.989 -1.3048 -1.1083 -1.6644
 2776SOL     OW 8462   2.563   0.531   4.573 -0.6874 -0.1507  0.3434
 2776SOL    HW1 8463   2.473   0.499   4.564 -0.3179 -1.1367  0.0242
 2776SOL    HW2 8464   2.604   0.469   4.634 -0.0477 -0.0974 -0.0248
 2777SOL     OW 8465   4.391   3.873   1.186 -0.2484  0.4322 -0.1782
 2777SOL    HW1 8466   4.310   3.832   1.218 -0.5866 -0.8725 -2.4678
 2777SOL    HW2 8467   4.461   3.829   1.234 -0.8156  0.6112  0.8410
 2778SOL     OW 8468   2.947   2.685   2.939 -0.2200 -0.2300  0.8370
 2778SOL    HW1 8469   2.859   2.653   2.958 -1.3203  1.2233 -1.2877
 2778SOL    HW2 8470   2.975   2.634   2.863  0.9268 -0.8568  1.6496
 2779SOL     OW 8471   4.259   3.574   0.215 -0.3311 -0.5456  0.3730
 2779SOL    HW1 8472   4.220   3.620   0.141  0.0096 -1.0081 -0.1018
 2779SOL    HW2 8473   4.188   3.523   0.253 -0.8777  0.8355  1.3053
 2780SOL     OW 8474   0.012   2.904   0.882 -0.3564 -0.4078 -0.7498
 2780SOL    HW1 8475   0.088   2.915   0.938 -1.4263  1.6725  0.4158
 2780SOL    HW2 8476   0.023   2.817   0.843  2.7572 -0.0498 -0.9243
 2781SOL     OW 8477   3.855   2.807   3.569  0.8219  0.3779 -0.3959
 2781SOL    HW1 8478   3.844   2.780   3.478  0.8092  2.5876 -1.1043
 2781SOL    HW2 8479   3.782   2.766   3.615 -1.7783  2.6164 -2.2127
 2782SOL     OW 8480   2.731   0.631   3.793  0.0751 -0.8117 -0.4994
 2782SOL    HW1 8481   2.773   0.558   3.839  0.2518  0.0815  0.8290
 2782SOL    HW2 8482   2.714   0.696   3.862 -1.2732 -0.1373 -1.4219
 2783SOL     OW 8483   3.692   2.821   0.516  0.9269 -0.6608 -0.3295
 2783SOL    HW1 8484   3.606   2.864   0.512 -0.1262 -2.6122  0.1848
 2783SOL    HW2 8485   3.679   2.746   0.575  2.9291 -1.1454 -0.4306
 2784SOL     OW 8486   1.679   1.351   3.004  0.0435  0.4817 -0.1513
 2784SOL    HW1 8487   1.629   1.426   2.972  1.3198  1.5153  0.1820
 2784SOL    HW2 8488   1.657   1.280   2.943  0.1770  1.5953 -1.5606
 2785SOL     OW 8489   0.199   4.196   4.790 -0.1061  0.1545  1.0270
 2785SOL    HW1 8490   0.229   4.106   4.799  0.8302  0.2141 -0.8865
 2785SOL    HW2 8491   0.264   4.237   4.732 -1.4752  1.5556  0.3930
 2786SOL     OW 8492   0.358   1.007   2.307  0.6365  0.3142  0.0125
 2786SOL    HW1 8493   0.444   1.037   2.339  1.2800 -1.5955  0.2018
 2786SOL    HW2 8494   0.297   1.036   2.375  1.2880  0.6435  0.4795
 2787SOL     OW 8495   4.367   4.377   1.105  0.5627  1.0390 -0.9514
 2787SOL    HW1 8496   4.454   4.342   1.125  0.4419  1.0247 -0.4334
 2787SOL    HW2 8497   4.323   4.305   1.059  0.1306  0.2734  0.5723
 2788SOL     OW 8498   1.083   4.723   0.887  0.1623  0.0377 -0.0550
 2788SOL    HW1 8499   1.159   4.767   0.926  1.2343 -2.2558  0.6579
 2788SOL    HW2 8500   1.121   4.661   0.825 -1.0362 -1.5330  0.6966
 2789SOL     OW 8501   0.864   0.704   4.174  0.1242  0.6000  0.4419
 2789SOL    HW1 8502   0.854   0.788   4.129  1.2238  0.5584  0.0886
 2789SOL    HW2 8503   0.856   0.726   4.267 -0.6585  0.9215  0.3089
 2790SOL     OW 8504   2.320   2.331   0.503 -0.6656 -0.0273 -0.3094
 2790SOL    HW1 8505   2.400   2.309   0.552 -2.1863 -2.7611  1.2181
 2790SOL    HW2 8506   2.319   2.426   0.501  2.3626  0.1331  0.0261
 2791SOL     OW 8507   1.890   0.361   4.038 -1.0854  0.5680  0.2644
 2791SOL    HW1 8508   1.835   0.421   4.088  0.4491  1.1461  1.3471
 2791SOL    HW2 8509   1.926   0.302   4.104 -0.1617  0.4224 -0.3511
 2792SOL     OW 8510   2.260   3.331   2.559 -0.5475 -0.0093 -0.3059
 2792SOL    HW1 8511   2.263   3.364   2.649  1.8555  2.1211 -1.0601
 2792SOL    HW2 8512   2.298   3.244   2.564 -2.0234 -0.6445  0.9262
 2793SOL     OW 8513   1.615   1.061   1.053 -0.4574  0.1897  0.1740
 2793SOL    HW1 8514   1.585   1.117   0.982 -0.8117  0.9750  0.9152
 2793SOL    HW2 8515   1.710   1.071   1.054 -0.4119 -0.1398 -0.4299
 2794SOL     OW 8516   3.626   3.445   1.630 -0.6028 -0.4331 -0.3105
 2794SOL    HW1 8517   3.717   3.438   1.657 -0.8578  2.8853  2.0119
 2794SOL    HW2 8518   3.618   3.533   1.594 -3.1746  0.0610  1.1881
 2795SOL     OW 8519   2.331   1.642   3.054 -0.5801 -0.4281  0.1197
 2795SOL    HW1 8520   2.269   1.711   3.076  0.2393  0.6096 -0.6840
 2795SOL    HW2 8521   2.292   1.597   2.979  0.0448  0.8688 -1.0410
 2796SOL     OW 8522   4.534   1.982   3.350  0.5065 -0.1314  0.2483
 2796SOL    HW1 8523   4.472   2.006   3.281  1.5181  0.2940 -0.5345
 2796SOL    HW2 8524   4.552   2.064   3.396 -0.6997 -0.5344  1.4973
 2797SOL     OW 8525   2.233   3.482   4.213  0.6963  0.2676  0.0456
 2797SOL    HW1 8526   2.311   3.495   4.267  0.7959 -0.2541  0.0297
 2797SOL    HW2 8527   2.232   3.557   4.154  1.0223  0.4340  0.2476
 2798SOL     OW 8528   2.758   3.640   4.582  0.8837  0.5749  0.5901
 2798SOL    HW1 8529   2.776   3.646   4.488  1.3177  0.3164  0.6517
 2798SOL    HW2 8530   2.769   3.547   4.602  0.0293  0.4997  0.7538
 2799SOL     OW 8531   0.378   2.856   2.823 -0.0021  0.4128 -0.1015
 2799SOL    HW1 8532   0.471   2.875   2.806 -0.0687  2.3036  1.2986
 2799SOL    HW2 8533   0.331   2.921   2.770 -0.4480  0.6606  0.5940
 2800SOL     OW 8534   1.999   1.265   3.578  0.5482 -0.3579  0.5829
 2800SOL    HW1 8535   2.031   1.295   3.663 -0.4273  1.4346  0.3593
 2800SOL    HW2 8536   2.076   1.232   3.533  1.3600  0.1669  1.5588
 2801SOL     OW 8537   4.387   4.457   2.772  0.6430 -0.2032 -0.2158
 2801SOL    HW1 8538   4.362   4.463   2.679  2.1815 -0.0766 -0.6494
 2801SOL    HW2 8539   4.473   4.417   2.771  0.7494 -0.0518  1.1678
 2802SOL     OW 8540   3.683   4.176   0.334  0.1299 -0.1432 -0.3436
 2802SOL    HW1 8541   3.626   4.110   0.373 -0.1646 -0.6600 -1.5885
 2802SOL    HW2 8542   3.766   4.131   0.320  0.2815  0.0813 -0.1797
 2803SOL     OW 8543   2.649   4.028   2.783 -0.5807  0.1416  0.1582
 2803SOL    HW1 8544   2.651   4.113   2.827  0.8930  1.2524 -1.9092
 2803SOL    HW2 8545   2.654   3.965   2.854 -0.6064  1.7874  1.7038
 2804SOL     OW 8546   1.799   0.125   3.893  0.5979 -0.0112 -0.4269
 2804SOL    HW1 8547   1.759   0.101   3.976  0.2538 -0.8372 -0.8133
 2804SOL    HW2 8548   1.831   0.214   3.906  0.3259 -0.0409  0.5029
 2805SOL     OW 8549   0.315   2.959   2.233 -0.3171 -0.2373 -0.1950
 2805SOL    HW1 8550   0.400   2.990   2.266 -1.1026 -0.4472  2.2635
 2805SOL    HW2 8551   0.327   2.952   2.139  2.9299 -1.8912  0.1983
 2806SOL     OW 8552   0.184   4.953   2.672 -0.4318  0.0597 -0.6594
 2806SOL    HW1 8553   0.145   5.024   2.723 -0.4991  0.2237 -0.9353
 2806SOL    HW2 8554   0.141   4.958   2.587 -0.6923 -0.5404 -0.5666
 2807SOL     OW 8555   0.925   4.241   4.396  0.7669 -0.2150  0.5605
 2807SOL    HW1 8556   0.865   4.177   4.434  0.0799 -0.2413 -0.5202
 2807SOL    HW2 8557   0.953   4.294   4.471 -0.7073 -0.1203  1.0938
 2808SOL     OW 8558   3.281   1.441   2.276  0.0748  0.0034 -0.4555
 2808SOL    HW1 8559   3.219   1.374   2.302  0.9919 -0.5757  0.3243
 2808SOL    HW2 8560   3.250   1.521   2.317 -1.5488  0.3137 -2.1493
 2809SOL     OW 8561   1.650   1.071   1.483  0.3936  0.0873  0.5022
 2809SOL    HW1 8562   1.642   1.158   1.444 -0.2890 -0.4065 -0.5000
 2809SOL    HW2 8563   1.589   1.017   1.433  0.8774 -0.9892  1.0504
 2810SOL     OW 8564   3.808   4.465   2.930  0.3866  0.0957  0.3273
 2810SOL    HW1 8565   3.716   4.489   2.942  0.2197 -1.5278  3.1249
 2810SOL    HW2 8566   3.808   4.404   2.856 -0.7333  0.2966  0.1470
 2811SOL     OW 8567   0.783   1.294   4.975 -0.3550 -0.9017  0.4916
 2811SOL    HW1 8568   0.780   1.379   4.931 -1.5614  0.6063  3.2345
 2811SOL    HW2 8569   0.854   1.303   5.040 -0.4798 -1.9846  0.7935
 2812SOL     OW 8570   1.077   3.274   1.924 -0.2467 -0.2516  0.3785
 2812SOL    HW1 8571   1.169   3.249   1.932  0.3190  1.8149  1.0982
 2812SOL    HW2 8572   1.080   3.362   1.887 -1.9711 -0.2977  0.0404
 2813SOL     OW 8573   4.433   4.551   1.912  1.0507  0.2254  0.1444
 2813SOL    HW1 8574   4.459   4.517   1.997 -0.0950  1.7800  1.1612
 2813SOL    HW2 8575   4.338   4.562   1.918  1.1976  2.3614 -0.5488
 2814SOL     OW 8576   4.363   2.645   1.434  0.1079 -0.5159  0.6886
 2814SOL    HW1 8577   4.401   2.604   1.357  3.7489 -0.0913  2.0389
 2814SOL    HW2 8578   4.381   2.584   1.506 -2.2428 -0.4256  1.4508
 2815SOL     OW 8579   3.959   3.708   3.279  0.4718  0.7147 -0.2489
 2815SOL    HW1 8580   4.041   3.662   3.260 -0.5121 -0.4553 -1.9820
 2815SOL    HW2 8581   3.967   3.792   3.235  0.0019 -0.2063 -2.2227
 2816SOL     OW 8582   0.815   4.864   2.423 -0.1427  0.7393 -0.1692
 2816SOL    HW1 8583   0.863   4.844   2.342  1.0243  0.9742  0.4347
 2816SOL    HW2 8584   0.723   4.858   2.399  0.0317 -3.1255 -0.6258
 2817SOL     OW 8585   0.616   2.539   2.081 -0.1724 -0.2529 -0.8199
 2817SOL    HW1 8586   0.586   2.511   1.994 -1.8044  0.4193 -0.5163
 2817SOL    HW2 8587   0.562   2.615   2.101  0.9616  0.2723  0.3323
 2818SOL     OW 8588   2.806   0.670   3.129 -0.3923  0.2306 -0.1147
 2818SOL    HW1 8589   2.712   0.659   3.114 -0.6763  0.8336  1.1304
 2818SOL    HW2 8590   2.828   0.749   3.080 -0.7809  0.7376  0.5121
 2819SOL     OW 8591   4.403   1.767   4.929 -0.8388  0.2350  0.1670
 2819SOL    HW1 8592   4.493   1.793   4.950 -0.7069  0.2501 -0.3819
 2819SOL    HW2 8593   4.351   1.845   4.945 -0.7026  0.3268  0.1688
 2820SOL     OW 8594   4.974   0.847   0.341  0.1356  0.5748 -0.2179
 2820SOL    HW1 8595   5.051   0.798   0.313 -0.0819 -0.4306  0.8765
 2820SOL    HW2 8596   4.901   0.788   0.323 -0.0465  0.0845  1.9414
 2821SOL     OW 8597   4.211   2.192   0.542 -0.2883  0.0621 -0.3768
 2821SOL    HW1 8598   4.120   2.191   0.572 -0.0152  2.9927  0.9003
 2821SOL    HW2 8599   4.240   2.101   0.552 -2.1675 -0.3901  2.1923
 2822SOL     OW 8600   0.551   0.720   4.420  0.0827  0.0096 -0.2500
 2822SOL    HW1 8601   0.476   0.754   4.371 -0.8979  1.1084  1.8665
 2822SOL    HW2 8602   0.537   0.750   4.510  1.2754 -2.6655  0.9620
 2823SOL     OW 8603   0.698   0.468   4.457  0.1094  0.0663 -0.4075
 2823SOL    HW1 8604   0.764   0.478   4.389 -0.1260  1.1104 -0.5121
 2823SOL    HW2 8605   0.641   0.544   4.445  1.3853  1.6086  2.4225
 2824SOL     OW 8606   0.640   4.126   2.559  0.5158 -0.0471 -0.5849
 2824SOL    HW1 8607   0.634   4.215   2.593 -0.7174 -0.3946  0.1656
 2824SOL    HW2 8608   0.716   4.128   2.501  0.6748  1.4171 -0.3715
 2825SOL     OW 8609   1.915   3.999   4.742 -0.7561  0.1858 -0.3758
 2825SOL    HW1 8610   1.973   3.950   4.683 -1.6927 -2.8466  1.0164
 2825SOL    HW2 8611   1.956   3.992   4.828 -1.1196  1.6343 -0.0529
 2826SOL     OW 8612   0.885   2.187   3.412  0.2679  0.0901  0.5068
 2826SOL    HW1 8613   0.929   2.139   3.482  2.3897  0.9133 -0.1802
 2826SOL    HW2 8614   0.943   2.262   3.394 -0.2014 -0.0724 -2.0630
 2827SOL     OW 8615   4.609   3.904   4.336  0.3611 -0.0426  0.4561
 2827SOL    HW1 8616   4.593   3.954   4.256 -0.7105 -1.4580 -0.2596
 2827SOL    HW2 8617   4.662   3.962   4.390  0.0868  1.4279 -0.7774
 2828SOL     OW 8618   0.502   4.026   4.346  0.9670  0.5179 -0.0555
 2828SOL    HW1 8619   0.453   4.065   4.418  3.8924  0.8176  1.9527
 2828SOL    HW2 8620   0.439   3.969   4.302 -3.3873  6.2355 -2.5657
 2829SOL     OW 8621   1.805   4.533   2.215  0.0914  0.3163  0.6442
 2829SOL    HW1 8622   1.781   4.512   2.305 -0.2552  0.6995  0.6462
 2829SOL    HW2 8623   1.900   4.521   2.212  0.1832  0.8278  1.2138
 2830SOL     OW 8624   4.640   1.298   0.310  0.5282 -0.1002 -0.1787
 2830SOL    HW1 8625   4.663   1.209   0.339  0.4966  0.0438  0.3037
 2830SOL    HW2 8626   4.579   1.329   0.377  0.0454  0.0562 -0.6801
 2831SOL     OW 8627   3.223   4.920   1.954  0.2050  0.1952 -0.0711
 2831SOL    HW1 8628   3.150   4.944   2.011  0.1880 -0.4909  0.2042
 2831SOL    HW2 8629   3.288   4.880   2.012  1.2407  1.6727 -0.1515
 2832SOL     OW 8630   0.097   4.967   2.130 -0.4064  0.3019  0.4569
 2832SOL    HW1 8631   0.003   4.979   2.139 -0.4886 -1.2642  2.4263
 2832SOL    HW2 8632   0.107   4.907   2.056 -1.1744 -1.6280  1.8696
 2833SOL     OW 8633   3.181   4.947   1.282 -0.1124 -0.5062  0.0762
 2833SOL    HW1 8634   3.116   5.005   1.323 -0.1639 -1.0649  0.7993
 2833SOL    HW2 8635   3.134   4.866   1.264  0.7164 -1.5148  2.0641
 2834SOL     OW 8636   0.124   2.789   3.885  0.7967 -0.1225  0.3685
 2834SOL    HW1 8637   0.173   2.709   3.863  1.6123 -0.1625  2.1560
 2834SOL    HW2 8638   0.036   2.758   3.908  0.3816 -0.2258 -1.2803
 2835SOL     OW 8639   2.983   2.545   4.151  0.4233  0.1877 -0.1873
 2835SOL    HW1 8640   3.055   2.485   4.170  0.4416  0.3283  0.2005
 2835SOL    HW2 8641   2.960   2.583   4.236  0.0643  0.3381 -0.3460
 2836SOL     OW 8642   4.829   2.847   1.793 -0.2267  0.4908  0.1638
 2836SOL    HW1 8643   4.815   2.923   1.736 -0.2648 -0.1891 -0.7747
 2836SOL    HW2 8644   4.741   2.815   1.813 -0.2662 -1.4058 -2.4356
 2837SOL     OW 8645   3.988   4.545   3.136  0.1222  0.0258 -0.1286
 2837SOL    HW1 8646   3.940   4.495   3.070 -0.5973  0.4629  0.0478
 2837SOL    HW2 8647   4.008   4.482   3.205  0.7255 -0.3944 -0.6680
 2838SOL     OW 8648   2.392   3.032   0.392  0.0153 -0.1272  1.0655
 2838SOL    HW1 8649   2.439   2.968   0.339 -1.0375  0.0363 -0.1161
 2838SOL    HW2 8650   2.381   3.108   0.335 -1.2284  0.0225  1.4663
 2839SOL     OW 8651   2.795   3.243   0.062  0.4809  0.3803 -0.4904
 2839SOL    HW1 8652   2.821   3.231  -0.029  0.0403 -1.5427 -0.4086
 2839SOL    HW2 8653   2.848   3.317   0.093  1.8928 -0.0244 -1.8153
 2840SOL     OW 8654   2.604   1.132   4.992 -0.3008  0.7157  0.2432
 2840SOL    HW1 8655   2.569   1.186   5.063  0.9305  1.3883  0.3662
 2840SOL    HW2 8656   2.551   1.155   4.916 -1.2001  0.4725  0.7699
 2841SOL     OW 8657   4.597   2.220   3.832  0.0830  0.6142  0.2729
 2841SOL    HW1 8658   4.526   2.158   3.814  0.8705 -0.2256 -0.0375
 2841SOL    HW2 8659   4.623   2.251   3.745  0.1367  0.8802  0.3846
 2842SOL     OW 8660   0.130   1.187   2.137 -0.4161 -0.3263 -0.2334
 2842SOL    HW1 8661   0.138   1.182   2.042 -1.6755  0.3030 -0.3938
 2842SOL    HW2 8662   0.218   1.171   2.170 -0.3044 -2.5814 -1.4176
 2843SOL     OW 8663   0.198   1.116   1.894  0.3965 -0.0874  0.0548
 2843SOL    HW1 8664   0.282   1.070   1.890 -0.0874 -0.9093 -1.0478
 2843SOL    HW2 8665   0.146   1.078   1.824 -0.1794  1.8609 -0.6565
 2844SOL     OW 8666   3.462   2.701   4.851  0.3390 -0.4982 -0.1529
 2844SOL    HW1 8667   3.451   2.732   4.941 -0.2701  0.0373 -0.4052
 2844SOL    HW2 8668   3.557   2.698   4.838  0.4300 -0.5891  0.5105
 2845SOL     OW 8669   3.453   1.490   3.843  0.2297  0.0699 -0.6876
 2845SOL    HW1 8670   3.433   1.532   3.927  0.5849  0.0708 -0.6018
 2845SOL    HW2 8671   3.537   1.447   3.857 -1.1445 -2.6803 -0.0287
 2846SOL     OW 8672   2.157   2.727   4.767 -0.1717  0.4866  0.1614
 2846SOL    HW1 8673   2.182   2.644   4.807  0.6054  1.0165  0.8142
 2846SOL    HW2 8674   2.110   2.703   4.687  0.8300 -0.5754 -0.1217
 2847SOL     OW 8675   1.451   3.919   1.371 -0.2261  0.3935 -0.4691
 2847SOL    HW1 8676   1.363   3.955   1.381 -0.5504 -0.4873 -0.0994
 2847SOL    HW2 8677   1.440   3.825   1.380  0.9401  0.3553  0.8860
 2848SOL     OW 8678   4.250   1.543   0.132  0.3730  0.4801 -0.5875
 2848SOL    HW1 8679   4.209   1.466   0.173  2.4283 -0.5230 -0.3125
 2848SOL    HW2 8680   4.213   1.545   0.043 -0.2037 -0.4193 -0.3834
 2849SOL     OW 8681   0.255   0.787   4.041  0.6131  0.4072 -0.7762
 2849SOL    HW1 8682   0.225   0.697   4.055  0.1192  0.6559 -0.2348
 2849SOL    HW2 8683   0.227   0.808   3.952  0.3406  0.1796 -0.7455
 2850SOL     OW 8684   4.228   0.560   1.240 -0.4655  0.0741  0.2976
 2850SOL    HW1 8685   4.199   0.565   1.149  0.2562 -0.2235  0.0441
 2850SOL    HW2 8686   4.323   0.557   1.235 -0.4049  0.4101  1.0840
 2851SOL     OW 8687   4.158   1.259   4.668  0.2380 -0.2396  0.1073
 2851SOL    HW1 8688   4.228   1.323   4.652  0.9686 -0.6150  1.5844
 2851SOL    HW2 8689   4.080   1.297   4.628  1.0329  0.7581 -0.5271
 2852SOL     OW 8690   3.589   1.908   3.420  0.6318 -0.1338 -0.3914
 2852SOL    HW1 8691   3.495   1.924   3.427  0.8774  2.1814 -1.4901
 2852SOL    HW2 8692   3.602   1.886   3.328  1.2434  0.0613 -0.3515
 2853SOL     OW 8693   3.120   4.635   4.781  0.1363  0.0660  0.1644
 2853SOL    HW1 8694   3.141   4.543   4.796  0.9773  0.2131 -0.0716
 2853SOL    HW2 8695   3.144   4.679   4.863 -0.8858 -0.0101  0.5221
 2854SOL     OW 8696   0.048   4.937   4.663  0.0121 -0.1603 -0.0465
 2854SOL    HW1 8697   0.080   4.850   4.639 -1.6174 -0.6332 -0.6429
 2854SOL    HW2 8698   0.096   4.997   4.605 -0.0597 -0.8257 -0.8200
 2855SOL     OW 8699   3.427   1.765   3.643 -0.5519 -0.0683 -0.2637
 2855SOL    HW1 8700   3.452   1.848   3.683 -1.3418  0.5132 -0.9425
 2855SOL    HW2 8701   3.500   1.706   3.662 -1.0992  0.0105  2.4732
 2856SOL     OW 8702   2.577   3.810   4.769 -0.1733  0.3011 -0.4537
 2856SOL    HW1 8703   2.656   3.774   4.730  1.2845  0.9579  1.7495
 2856SOL    HW2 8704   2.560   3.891   4.720  1.7467  1.2347  0.3407
 2857SOL     OW 8705   2.119   4.646   3.451 -0.6541 -0.6783  0.7138
 2857SOL    HW1 8706   2.065   4.683   3.522 -0.0474  2.0823 -0.1350
 2857SOL    HW2 8707   2.067   4.573   3.417 -1.5466 -1.2796  3.1135
 2858SOL     OW 8708   0.555   1.675   5.005 -0.0522 -0.7169  0.1505
 2858SOL    HW1 8709   0.577   1.633   4.921  0.4796  0.5120 -0.3521
 2858SOL    HW2 8710   0.547   1.768   4.983  0.5258 -0.3181  1.5458
 2859SOL     OW 8711   2.058   4.021   3.119  0.2271 -0.1512  0.8631
 2859SOL    HW1 8712   2.031   3.929   3.115  1.3442 -0.4592 -0.2526
 2859SOL    HW2 8713   2.073   4.038   3.212 -1.9269 -0.4785  1.3295
 2860SOL     OW 8714   1.013   1.967   1.469 -0.0945 -0.5587  0.2182
 2860SOL    HW1 8715   1.067   1.935   1.397  0.2229 -0.2731  0.3303
 2860SOL    HW2 8716   0.942   1.902   1.475  0.4563 -1.1598  0.3454
 2861SOL     OW 8717   1.440   3.440   3.911  0.5093  0.1329  0.1440
 2861SOL    HW1 8718   1.424   3.492   3.833  2.6794  0.4495 -0.1626
 2861SOL    HW2 8719   1.398   3.356   3.894  0.8181  0.2474 -1.3051
 2862SOL     OW 8720   4.147   4.327   2.887  0.4967  0.0439 -0.1088
 2862SOL    HW1 8721   4.232   4.365   2.863  0.7473  1.4318  2.6206
 2862SOL    HW2 8722   4.163   4.281   2.969 -0.9145 -1.8158 -0.8158
 2863SOL     OW 8723   3.545   1.190   1.935  0.0316  0.0397  0.1840
 2863SOL    HW1 8724   3.563   1.209   2.028 -2.6476 -0.0044  0.8146
 2863SOL    HW2 8725   3.574   1.100   1.923 -2.0296 -0.9675  1.8537
 2864SOL     OW 8726   4.030   3.356   4.839  0.0433 -0.9125 -0.4371
 2864SOL    HW1 8727   4.000   3.285   4.782  0.4153 -0.0931 -1.7092
 2864SOL    HW2 8728   3.949   3.400   4.866 -0.0605  0.2003 -2.3955
 2865SOL     OW 8729   4.602   0.979   2.572  0.2698 -0.2743  0.5860
 2865SOL    HW1 8730   4.682   1.008   2.616 -0.2134 -2.0249  2.7996
 2865SOL    HW2 8731   4.574   1.055   2.521  2.2849  1.0218  1.2949
 2866SOL     OW 8732   0.045   4.053   4.515 -0.5211 -0.1325 -0.9278
 2866SOL    HW1 8733   0.022   3.995   4.588 -0.9851  1.8326  0.5715
 2866SOL    HW2 8734   0.011   4.008   4.438 -1.8312 -1.3375  0.2814
 2867SOL     OW 8735   1.867   0.879   1.290 -0.2375 -0.6499 -0.4515
 2867SOL    HW1 8736   1.886   0.912   1.202  1.1316  0.1761  0.1140
 2867SOL    HW2 8737   1.877   0.956   1.347 -1.2196 -1.1381  0.4261
 2868SOL     OW 8738   2.967   4.301   1.676  0.6535  0.2494 -0.4273
 2868SOL    HW1 8739   2.940   4.321   1.765 -2.4718 -1.2510 -0.9176
 2868SOL    HW2 8740   3.042   4.242   1.686  0.0100 -0.3374  1.1970
 2869SOL     OW 8741   1.274   4.531   3.628  0.1167 -0.1398  0.6063
 2869SOL    HW1 8742   1.266   4.564   3.718  1.5408  0.1151  0.6691
 2869SOL    HW2 8743   1.214   4.584   3.577 -0.8061 -0.3687  1.4211
 2870SOL     OW 8744   3.080   3.196   2.571 -0.3130  0.3459 -0.4600
 2870SOL    HW1 8745   3.063   3.207   2.477  1.8966 -0.7533 -1.0686
 2870SOL    HW2 8746   3.150   3.131   2.575 -0.1014  0.6230  1.9557
 2871SOL     OW 8747   4.063   4.414   0.947 -0.1277 -0.4714  0.5417
 2871SOL    HW1 8748   4.002   4.382   0.881  1.1549  0.2643 -1.0898
 2871SOL    HW2 8749   4.147   4.376   0.922  0.1935 -1.1186  2.4741
 2872SOL     OW 8750   0.299   3.128   2.497  0.1307 -0.4044 -0.4903
 2872SOL    HW1 8751   0.365   3.079   2.448  0.6717  0.4196 -0.6137
 2872SOL    HW2 8752   0.227   3.066   2.510  1.3467 -1.6756  0.5587
 2873SOL     OW 8753   4.069   2.503   1.453  0.1464  0.3731  0.1524
 2873SOL    HW1 8754   4.127   2.579   1.456 -0.3490  0.7656 -0.2377
 2873SOL    HW2 8755   4.000   2.527   1.391  0.1651 -0.5195 -0.2295
 2874SOL     OW 8756   1.297   2.045   0.282 -0.1894  0.0702  0.1329
 2874SOL    HW1 8757   1.241   2.056   0.205  1.8077  1.5293 -1.2192
 2874SOL    HW2 8758   1.354   1.971   0.260 -1.6685 -1.6255  1.6357
 2875SOL     OW 8759   0.636   5.040   2.785  0.1403 -0.5611 -0.0073
 2875SOL    HW1 8760   0.689   5.070   2.859 -0.1979 -2.3069  0.9856
 2875SOL    HW2 8761   0.684   4.965   2.751  0.6545  0.6219 -2.0527
 2876SOL     OW 8762   4.951  -0.016   3.615  0.2437  0.1162 -0.3102
 2876SOL    HW1 8763   4.988  -0.027   3.528  1.7920  1.2408  0.1600
 2876SOL    HW2 8764   4.943   0.079   3.626 -0.3734 -0.0286  0.6008
 2877SOL     OW 8765   4.956   3.349   0.751  0.5118 -0.4080  1.0164
 2877SOL    HW1 8766   4.930   3.262   0.784 -1.8927 -0.9519 -1.8570
 2877SOL    HW2 8767   4.924   3.410   0.818 -1.2347 -1.5840  1.3449
 2878SOL     OW 8768   0.259   0.098   0.424  0.3314  0.3226 -0.2648
 2878SOL    HW1 8769   0.274   0.026   0.485  1.1069  0.7570  0.0834
 2878SOL    HW2 8770   0.327   0.162   0.446  0.4867  0.5878 -1.4339
 2879SOL     OW 8771   3.710   3.289   1.946  0.0836  0.2723 -0.0151
 2879SOL    HW1 8772   3.732   3.369   1.993 -0.7124  0.6079 -0.1984
 2879SOL    HW2 8773   3.669   3.233   2.012  0.5082  0.0680  0.0790
 2880SOL     OW 8774   0.702   0.216   4.640  0.2103  0.2625  0.3747
 2880SOL    HW1 8775   0.667   0.270   4.569 -0.0040 -0.3478  0.0094
 2880SOL    HW2 8776   0.796   0.236   4.642  0.3250 -0.1446 -0.4719
 2881SOL     OW 8777   2.433   0.905   1.373 -0.2864  0.3259 -0.2845
 2881SOL    HW1 8778   2.361   0.950   1.329 -1.3160 -0.6374  0.3490
 2881SOL    HW2 8779   2.393   0.866   1.451  0.7665 -0.8141 -0.2761
 2882SOL     OW 8780   1.576   4.222   2.111 -0.2862  0.5432 -0.1528
 2882SOL    HW1 8781   1.634   4.294   2.085  0.4903  0.0386  0.1640
 2882SOL    HW2 8782   1.506   4.265   2.160  1.0930  0.9406  1.5963
 2883SOL     OW 8783   0.478   3.515   2.652  0.7822 -0.5430  0.1503
 2883SOL    HW1 8784   0.541   3.486   2.718  0.7784  0.3124  0.5413
 2883SOL    HW2 8785   0.405   3.453   2.659  0.3036  0.1609  1.7063
 2884SOL     OW 8786   0.043   3.803   1.840  0.2797  0.0576  0.2670
 2884SOL    HW1 8787   0.038   3.855   1.920 -0.2909  0.1116  0.2001
 2884SOL    HW2 8788   0.033   3.713   1.869  1.3548 -0.0401  0.3929
 2885SOL     OW 8789   4.655   0.208   2.811 -0.1402  0.1580  0.0568
 2885SOL    HW1 8790   4.698   0.292   2.824  0.8230 -0.2420 -0.3997
 2885SOL    HW2 8791   4.574   0.214   2.862 -1.0281  2.0389 -1.4378
 2886SOL     OW 8792   1.628   3.647   0.523 -0.0095 -0.0036  0.0148
 2886SOL    HW1 8793   1.585   3.596   0.593 -0.4139 -1.6148 -1.3313
 2886SOL    HW2 8794   1.666   3.580   0.466  2.2901  1.3284 -0.1292
 2887SOL     OW 8795   2.913   0.426   1.466  0.2207  0.5858  0.6756
 2887SOL    HW1 8796   2.970   0.503   1.466  1.7128 -0.4681 -0.7469
 2887SOL    HW2 8797   2.830   0.458   1.502  1.4943  2.3003  2.2602
 2888SOL     OW 8798   5.009   0.641   3.964  0.4107  0.4446 -0.2116
 2888SOL    HW1 8799   4.978   0.728   3.939 -1.7233  0.0344  0.7630
 2888SOL    HW2 8800   4.940   0.606   4.020  1.1447 -1.9457 -0.6697
 2889SOL     OW 8801   2.669   4.052   0.123 -0.5430  0.1067 -0.0057
 2889SOL    HW1 8802   2.725   4.002   0.181  1.1911 -0.7001 -2.2335
 2889SOL    HW2 8803   2.589   4.067   0.174  1.3031  0.5875  3.0023
 2890SOL     OW 8804   2.009   4.208   0.233 -0.2699  0.0162 -0.0858
 2890SOL    HW1 8805   2.017   4.206   0.138  1.3530  1.0501 -0.0030
 2890SOL    HW2 8806   1.993   4.300   0.255  3.0026  0.5111  0.8005
 2891SOL     OW 8807   1.429   5.046   2.233 -0.0822 -0.1186  0.2050
 2891SOL    HW1 8808   1.354   4.990   2.254 -1.1069  1.8824  2.4469
 2891SOL    HW2 8809   1.479   4.996   2.169 -2.8174 -1.9542 -0.7056
 2892SOL     OW 8810   0.688   0.397   1.557 -0.6833 -0.2426  0.2190
 2892SOL    HW1 8811   0.771   0.441   1.577 -0.0069 -2.4046  2.6189
 2892SOL    HW2 8812   0.703   0.358   1.471  0.4529  0.1370  0.2157
 2893SOL     OW 8813   4.491   4.645   0.939 -0.7638  0.2219  0.1169
 2893SOL    HW1 8814   4.577   4.613   0.966 -0.0512  0.0287 -2.1613
 2893SOL    HW2 8815   4.438   4.641   1.018  0.5855 -2.1946  1.0074
 2894SOL     OW 8816   4.371   2.392   0.548 -0.3717 -0.2493 -0.1448
 2894SOL    HW1 8817   4.454   2.346   0.543 -0.5158 -0.5065 -0.2262
 2894SOL    HW2 8818   4.305   2.322   0.553 -0.6390 -0.0695 -0.9638
 2895SOL     OW 8819   4.912   3.949   3.524  0.0919 -0.5993  1.2077
 2895SOL    HW1 8820   4.970   4.015   3.485 -1.6247  0.4779  0.3243
 2895SOL    HW2 8821   4.965   3.870   3.529  2.2650  0.8287  2.3666
 2896SOL     OW 8822   2.245   4.085   1.119 -0.1849 -0.7044 -0.1840
 2896SOL    HW1 8823   2.206   3.998   1.109  0.7018 -1.1876  0.5110
 2896SOL    HW2 8824   2.316   4.087   1.055  0.0398 -0.6381  0.0653
 2897SOL     OW 8825   1.442   1.665   3.216 -0.2404  0.0602  0.3608
 2897SOL    HW1 8826   1.504   1.630   3.280  3.2922  0.9189 -2.2008
 2897SOL    HW2 8827   1.376   1.597   3.206  0.7832 -1.3918  2.6312
 2898SOL     OW 8828   3.552   3.631   0.320  1.0040  0.2530 -0.6450
 2898SOL    HW1 8829   3.628   3.576   0.303  0.9655 -0.7516  2.0142
 2898SOL    HW2 8830   3.477   3.575   0.301  0.8395  1.1135 -2.8682
 2899SOL     OW 8831   0.559   0.633   1.614 -1.1466  0.4344 -0.6297
 2899SOL    HW1 8832   0.602   0.548   1.609 -0.5744  0.7312 -0.9025
 2899SOL    HW2 8833   0.613   0.690   1.560 -1.2823  1.0697 -0.1094
 2900SOL     OW 8834   4.031   2.314   1.122 -0.6885  0.3258  0.3135
 2900SOL    HW1 8835   3.974   2.269   1.060 -0.3121 -0.1937  0.3410
 2900SOL    HW2 8836   4.098   2.355   1.067  1.0542 -2.0954  0.4589
 2901SOL     OW 8837   1.959   4.482   3.332  0.0583  0.3571  0.1461
 2901SOL    HW1 8838   1.956   4.481   3.236  1.3243  1.7149  0.0478
 2901SOL    HW2 8839   1.868   4.474   3.359 -0.2280 -1.2642 -1.1210
 2902SOL     OW 8840   3.873   4.607   2.353 -0.1793 -0.3127  0.0842
 2902SOL    HW1 8841   3.911   4.520   2.369  0.2930  0.0905  1.2641
 2902SOL    HW2 8842   3.787   4.603   2.396 -0.0018 -0.0760  0.4605
 2903SOL     OW 8843   0.349   1.892   2.383 -0.2725 -0.2361  0.3238
 2903SOL    HW1 8844   0.352   1.849   2.469  0.0721  0.4506  0.6659
 2903SOL    HW2 8845   0.396   1.974   2.396 -0.8177  0.1902 -0.3460
 2904SOL     OW 8846   4.846   2.551   1.699  0.6603  0.1415 -0.1976
 2904SOL    HW1 8847   4.767   2.578   1.746 -0.5358  0.7871 -2.4732
 2904SOL    HW2 8848   4.917   2.590   1.750 -0.3200 -1.2485  2.4672
 2905SOL     OW 8849   2.565   2.705   3.572 -0.7356  0.1073 -0.6778
 2905SOL    HW1 8850   2.642   2.652   3.549 -0.5925  1.0483 -2.6081
 2905SOL    HW2 8851   2.602   2.789   3.600 -0.9403 -0.8263  2.8040
 2906SOL     OW 8852   3.276   4.376   4.563  0.0223 -0.4773 -0.3462
 2906SOL    HW1 8853   3.357   4.377   4.511 -0.4772 -0.2675 -1.1436
 2906SOL    HW2 8854   3.306   4.384   4.653  0.8615  0.4706 -0.6768
 2907SOL     OW 8855   0.550   1.365   2.006  0.0734 -0.2040  0.2400
 2907SOL    HW1 8856   0.581   1.439   2.058  0.7333 -0.2383 -0.0981
 2907SOL    HW2 8857   0.494   1.405   1.939 -0.2665 -0.0988  0.5827
 2908SOL     OW 8858   3.238   0.275   1.576 -0.2171 -0.5118 -0.6317
 2908SOL    HW1 8859   3.283   0.215   1.636 -0.4389 -0.7295 -0.6815
 2908SOL    HW2 8860   3.166   0.311   1.628 -0.4138 -0.7061 -0.7689
 2909SOL     OW 8861   0.985   1.641   3.225  0.2099  0.1458 -0.3634
 2909SOL    HW1 8862   0.910   1.683   3.267 -0.3512  0.5470 -1.7141
 2909SOL    HW2 8863   1.031   1.597   3.296 -2.0525 -1.2562  0.3456
 2910SOL     OW 8864   0.412   0.434   0.879 -0.1455  0.3974 -0.0794
 2910SOL    HW1 8865   0.341   0.492   0.908 -0.3857  0.1963 -0.2534
 2910SOL    HW2 8866   0.492   0.483   0.897 -0.3018  0.3995  0.6404
 2911SOL     OW 8867   2.966   4.435   3.515 -0.2083  0.0995 -0.1370
 2911SOL    HW1 8868   2.913   4.474   3.585 -2.4875 -2.7294 -0.1032
 2911SOL    HW2 8869   2.902   4.394   3.456  1.8515 -1.7637 -1.2428
 2912SOL     OW 8870   0.876   2.771   4.143  0.5579  0.0740  0.1914
 2912SOL    HW1 8871   0.844   2.695   4.094 -0.9044 -0.7322  2.2638
 2912SOL    HW2 8872   0.797   2.811   4.178  1.4971  1.0081  1.3006
 2913SOL     OW 8873   0.049   4.564   0.158  0.3369  0.6300 -0.3215
 2913SOL    HW1 8874   0.035   4.657   0.140  1.4867  0.3198 -3.6272
 2913SOL    HW2 8875   0.143   4.556   0.174  0.1936  0.0686  0.2927
 2914SOL     OW 8876   0.772   3.997   4.388  0.1379  0.6942  0.3500
 2914SOL    HW1 8877   0.775   3.924   4.326  2.1622  1.5054 -0.5962
 2914SOL    HW2 8878   0.682   4.031   4.381 -0.2610 -0.4936 -0.6353
 2915SOL     OW 8879   3.492   0.362   4.653  0.5830  0.2588  0.6254
 2915SOL    HW1 8880   3.488   0.268   4.672  0.1945  0.3147  0.8372
 2915SOL    HW2 8881   3.516   0.366   4.560 -1.1003 -0.0968  0.1362
 2916SOL     OW 8882   2.755   4.680   2.251 -0.3199  0.1614 -0.3543
 2916SOL    HW1 8883   2.757   4.600   2.199  2.2410  0.8674 -1.5165
 2916SOL    HW2 8884   2.833   4.728   2.224 -1.4102  2.7694  0.7870
 2917SOL     OW 8885   3.337   4.195   3.288 -0.1211 -0.1557  0.7640
 2917SOL    HW1 8886   3.264   4.257   3.293 -2.2330 -1.9215 -3.1530
 2917SOL    HW2 8887   3.370   4.206   3.199  1.6388 -2.3346  1.0884
 2918SOL     OW 8888   2.743   0.702   1.236 -0.2663 -0.2196  0.1285
 2918SOL    HW1 8889   2.709   0.621   1.198 -0.8601  0.5994 -1.1518
 2918SOL    HW2 8890   2.838   0.695   1.226 -0.2845 -0.9296  0.3990
 2919SOL     OW 8891   4.652   4.528   0.645 -0.4508  0.4576  0.0850
 2919SOL    HW1 8892   4.615   4.440   0.630  0.9338  0.0463 -1.1991
 2919SOL    HW2 8893   4.579   4.587   0.626 -1.2239 -0.3893  0.3064
 2920SOL     OW 8894   2.940   0.098   1.191  0.0122  0.0983  0.1616
 2920SOL    HW1 8895   2.895   0.169   1.144 -1.0467  0.2028  1.2793
 2920SOL    HW2 8896   2.926   0.118   1.284 -0.6991 -1.8087  0.5117
 2921SOL     OW 8897   0.638   2.457   3.232 -0.0808 -0.7551  0.3942
 2921SOL    HW1 8898   0.723   2.465   3.188 -0.5208  0.9630 -0.2437
 2921SOL    HW2 8899   0.628   2.540   3.279 -1.8134 -0.5129 -0.3307
 2922SOL     OW 8900   4.349   2.694   1.021 -0.5623 -0.3161  0.3527
 2922SOL    HW1 8901   4.367   2.627   1.088  1.4633 -1.8539 -1.5775
 2922SOL    HW2 8902   4.334   2.644   0.941  1.9652  1.4791 -1.3791
 2923SOL     OW 8903   3.344   4.046   2.066  0.7596 -0.0240  0.1998
 2923SOL    HW1 8904   3.416   4.102   2.097 -0.0913  0.9577  0.4418
 2923SOL    HW2 8905   3.323   4.079   1.979 -0.5299  0.8241  0.8098
 2924SOL     OW 8906   2.899   3.939   1.552  0.3107 -0.3472 -0.3442
 2924SOL    HW1 8907   2.864   3.914   1.637 -0.4907 -0.2242 -0.6241
 2924SOL    HW2 8908   2.955   3.866   1.525  0.4296 -0.4578  0.2096
 2925SOL     OW 8909   0.351   4.899   4.744 -0.2496  0.4936  0.2822
 2925SOL    HW1 8910   0.296   4.976   4.758  0.1182  0.5627  1.4497
 2925SOL    HW2 8911   0.415   4.927   4.678 -1.9324  0.2205 -1.5504
 2926SOL     OW 8912   2.181   0.931   0.575  1.0479 -0.2305 -0.2392
 2926SOL    HW1 8913   2.150   0.972   0.656 -0.5061 -2.0847  0.1975
 2926SOL    HW2 8914   2.115   0.954   0.510  0.5918 -1.2653 -0.1768
 2927SOL     OW 8915   1.665   2.674   2.585 -0.2499  0.0826 -0.1483
 2927SOL    HW1 8916   1.699   2.720   2.662 -2.4992  2.9771 -0.7209
 2927SOL    HW2 8917   1.740   2.625   2.552  1.0874 -0.3398  3.1708
 2928SOL     OW 8918   2.087   0.566   2.144 -0.2969 -0.1323  0.0234
 2928SOL    HW1 8919   2.092   0.661   2.155  0.2938 -0.1788  0.1571
 2928SOL    HW2 8920   2.114   0.530   2.228 -3.6953 -0.4259  1.1684
 2929SOL     OW 8921   0.083   1.242   4.831 -0.1120  0.4032 -0.3201
 2929SOL    HW1 8922   0.095   1.266   4.923 -2.4375 -1.1577  0.4892
 2929SOL    HW2 8923   0.145   1.171   4.816  0.1644  0.5556  0.0845
 2930SOL     OW 8924   1.006   2.908   3.518  0.2364 -0.2842 -0.3407
 2930SOL    HW1 8925   0.992   2.977   3.582 -0.0000  0.4723 -1.1815
 2930SOL    HW2 8926   1.099   2.886   3.526  0.1154 -0.4817  0.5296
 2931SOL     OW 8927   3.670   2.200   0.735  0.4499 -0.4251  0.3031
 2931SOL    HW1 8928   3.595   2.259   0.742  0.2000 -0.8375  1.1587
 2931SOL    HW2 8929   3.731   2.246   0.677 -0.5171 -0.1560 -0.5179
 2932SOL     OW 8930   4.684   4.705   3.794  0.1746 -0.4153  0.3309
 2932SOL    HW1 8931   4.681   4.611   3.776  0.2076  0.0012 -2.2111
 2932SOL    HW2 8932   4.661   4.746   3.711  3.1423  1.8946  0.4836
 2933SOL     OW 8933   0.577   0.500   3.833 -0.1906  0.1691  0.5569
 2933SOL    HW1 8934   0.568   0.510   3.927  0.6579  1.1815  0.5438
 2933SOL    HW2 8935   0.655   0.551   3.810 -0.6437  0.3223 -0.7522
 2934SOL     OW 8936   2.261   2.316   3.371 -0.2057 -0.0297  0.3987
 2934SOL    HW1 8937   2.232   2.369   3.296  1.1822  0.1867 -0.0342
 2934SOL    HW2 8938   2.302   2.379   3.430 -0.1966 -0.3636  0.7494
 2935SOL     OW 8939   1.976   3.561   3.931  0.2373  0.7983 -0.0767
 2935SOL    HW1 8940   1.905   3.503   3.904  0.6249  1.5283 -2.9011
 2935SOL    HW2 8941   1.968   3.565   4.027 -1.2592 -1.9729  0.0234
 2936SOL     OW 8942   3.377   1.855   1.079  0.2165 -0.2075  0.2371
 2936SOL    HW1 8943   3.468   1.865   1.107 -0.0977  0.7145  0.9849
 2936SOL    HW2 8944   3.326   1.872   1.158 -0.7658  3.4304 -0.9830
 2937SOL     OW 8945   3.799   4.472   1.231 -0.1074 -0.7117  0.3042
 2937SOL    HW1 8946   3.815   4.378   1.235  0.8710 -0.5967 -0.5166
 2937SOL    HW2 8947   3.866   4.511   1.287  0.1676 -0.4482 -0.1989
 2938SOL     OW 8948   2.288   2.823   0.569 -0.2566  0.2565 -0.0085
 2938SOL    HW1 8949   2.196   2.840   0.583 -0.3977 -0.1502 -0.3984
 2938SOL    HW2 8950   2.315   2.886   0.502 -0.6704 -0.7171 -1.1304
 2939SOL     OW 8951   4.425   4.730   0.673  0.5076 -0.7455  0.2707
 2939SOL    HW1 8952   4.344   4.689   0.643  1.8417 -2.2116 -1.5443
 2939SOL    HW2 8953   4.444   4.687   0.757  0.6929 -2.3044 -0.5268
 2940SOL     OW 8954   2.341   1.994   1.032  0.4309 -0.4617  0.2114
 2940SOL    HW1 8955   2.431   2.017   1.057 -0.0103  1.1140  0.4325
 2940SOL    HW2 8956   2.351   1.951   0.947  1.4578 -1.0828  0.6176
 2941SOL     OW 8957   4.923   4.291   0.088 -0.2077  0.1183 -0.2416
 2941SOL    HW1 8958   4.912   4.376   0.129  0.0585 -0.3501  0.8148
 2941SOL    HW2 8959   4.930   4.229   0.160  1.3777 -0.5894 -0.9397
 2942SOL     OW 8960   1.439   3.434   3.458 -0.0481 -0.3134  0.0806
 2942SOL    HW1 8961   1.356   3.447   3.411  0.7391 -0.8722 -1.5563
 2942SOL    HW2 8962   1.424   3.356   3.512  0.3865 -2.6579 -2.8838
 2943SOL     OW 8963   2.673   0.322   4.695  0.4375  0.3031 -0.1616
 2943SOL    HW1 8964   2.732   0.312   4.619 -1.1224  1.2169 -1.5673
 2943SOL    HW2 8965   2.684   0.241   4.744  1.4919 -0.3353 -1.3777
 2944SOL     OW 8966   2.379   3.202   2.306 -0.5031  0.2040 -0.3339
 2944SOL    HW1 8967   2.393   3.288   2.267 -0.3370  0.3146 -0.0377
 2944SOL    HW2 8968   2.287   3.203   2.334 -0.0356  1.0068  1.3674
 2945SOL     OW 8969   4.946   3.319   1.770  0.3559 -0.1118 -0.1104
 2945SOL    HW1 8970   4.975   3.228   1.765 -0.3338 -0.3096 -0.5503
 2945SOL    HW2 8971   4.953   3.351   1.681  0.0167  0.0882 -0.0637
 2946SOL     OW 8972   3.384   0.489   2.798  0.3571 -0.2226  0.4041
 2946SOL    HW1 8973   3.399   0.498   2.704 -1.8477  0.6065  0.0623
 2946SOL    HW2 8974   3.467   0.516   2.838 -0.0102  4.2435 -1.2153
 2947SOL     OW 8975   3.951   0.219   2.815 -0.1030  0.2521  0.5957
 2947SOL    HW1 8976   4.024   0.157   2.828 -0.6035 -0.1876  1.4121
 2947SOL    HW2 8977   3.912   0.193   2.732  0.4742  0.2988  0.2994
 2948SOL     OW 8978   0.598   2.306   0.748  0.1879  0.2607 -0.0668
 2948SOL    HW1 8979   0.561   2.283   0.662  0.8625 -0.7129 -0.1150
 2948SOL    HW2 8980   0.688   2.332   0.729  0.1598  0.6194  0.2822
 2949SOL     OW 8981   2.142   3.691   3.770  0.2440  0.0847 -0.1567
 2949SOL    HW1 8982   2.094   3.636   3.831 -4.2600  0.3437 -2.9718
 2949SOL    HW2 8983   2.196   3.631   3.720 -1.6637 -1.3149 -0.6482
 2950SOL     OW 8984   2.412   3.236   4.164  0.1427 -0.1325 -0.5266
 2950SOL    HW1 8985   2.428   3.330   4.175 -0.8077 -0.1529  1.5202
 2950SOL    HW2 8986   2.498   3.195   4.173  0.3075  0.4202  0.6183
 2951SOL     OW 8987   1.349   1.381   4.024  0.3133 -0.0172 -0.7577
 2951SOL    HW1 8988   1.312   1.349   3.942  0.4446 -1.3215 -0.3284
 2951SOL    HW2 8989   1.318   1.320   4.090  0.6955  0.6767  0.0851
 2952SOL     OW 8990   0.964   0.229   4.516  0.3851  0.4693 -0.0650
 2952SOL    HW1 8991   1.019   0.152   4.531  0.8947  0.8898  0.2461
 2952SOL    HW2 8992   0.920   0.211   4.433 -1.7793 -1.4860  1.3649
 2953SOL     OW 8993   4.163   2.988   2.720  0.8360 -0.1144  0.2196
 2953SOL    HW1 8994   4.110   3.056   2.680 -0.3631 -1.4568 -0.5331
 2953SOL    HW2 8995   4.149   2.999   2.814  0.2005  0.2943  0.0803
 2954SOL     OW 8996   1.123   3.782   1.927  0.1934 -0.3375 -0.4249
 2954SOL    HW1 8997   1.037   3.765   1.967 -0.2822  0.2725 -1.1840
 2954SOL    HW2 8998   1.185   3.748   1.992 -0.6104 -0.8297  0.1190
 2955SOL     OW 8999   2.272   0.111   1.370  0.5195 -0.1036  0.0012
 2955SOL    HW1 9000   2.330   0.038   1.392 -0.3934 -0.6197  0.7565
 2955SOL    HW2 9001   2.210   0.074   1.307  0.5119  0.2252 -0.1862
 2956SOL     OW 9002   0.193   0.750   2.791 -0.6016  0.0128 -0.0971
 2956SOL    HW1 9003   0.118   0.708   2.749 -0.0023 -1.0324 -0.1676
 2956SOL    HW2 9004   0.261   0.749   2.723 -0.5596  1.0765 -0.0815
 2957SOL     OW 9005   4.426   3.957   0.363 -0.5360 -0.1459  0.3117
 2957SOL    HW1 9006   4.499   3.930   0.418 -1.3435 -0.6771  1.1597
 2957SOL    HW2 9007   4.440   3.911   0.280  0.3155  0.1051  0.3057
 2958SOL     OW 9008   4.778   4.888   4.574  0.3967  0.4894  0.5980
 2958SOL    HW1 9009   4.865   4.920   4.598  1.2831 -1.1266 -0.2691
 2958SOL    HW2 9010   4.757   4.824   4.643  1.4139 -1.5718 -0.8953
 2959SOL     OW 9011   1.647   2.050   1.374 -0.3383  0.8408 -0.3674
 2959SOL    HW1 9012   1.667   2.038   1.282  0.9241 -0.9908  0.1048
 2959SOL    HW2 9013   1.710   2.115   1.405 -0.3241  0.9554 -0.6425
 2960SOL     OW 9014   4.041   4.291   2.281  0.0153 -0.2628 -0.3424
 2960SOL    HW1 9015   3.950   4.271   2.304 -0.1863  1.1105  0.1616
 2960SOL    HW2 9016   4.091   4.216   2.314 -0.7988 -0.4753  0.4621
 2961SOL     OW 9017   4.377   4.888   4.332  0.1802 -0.2663  0.3388
 2961SOL    HW1 9018   4.388   4.836   4.412  1.8177 -1.4104 -0.5792
 2961SOL    HW2 9019   4.461   4.932   4.320 -0.0779 -0.0300 -0.6959
 2962SOL     OW 9020   3.286   3.111   3.542  0.3773  0.4533  0.4930
 2962SOL    HW1 9021   3.304   3.114   3.636  2.3908 -0.2042  0.1749
 2962SOL    HW2 9022   3.242   3.028   3.530 -0.0573  0.6216  0.8734
 2963SOL     OW 9023   2.031   0.557   2.989  1.1087  0.4586 -0.4334
 2963SOL    HW1 9024   2.096   0.489   3.007  0.9340  0.2406 -0.6109
 2963SOL    HW2 9025   1.953   0.508   2.962  0.4355  0.6488  1.0687
 2964SOL     OW 9026   2.844   2.285   3.614  0.5489 -0.0859  0.4354
 2964SOL    HW1 9027   2.909   2.343   3.655  2.2674 -1.2372 -0.5535
 2964SOL    HW2 9028   2.867   2.197   3.645 -0.3248 -0.5547 -0.2037
 2965SOL     OW 9029   3.268   4.441   1.389 -0.1535 -0.2372 -0.2685
 2965SOL    HW1 9030   3.304   4.501   1.455  0.3215 -1.9712  1.1452
 2965SOL    HW2 9031   3.173   4.448   1.401 -0.1124  0.3200 -0.2154
 2966SOL     OW 9032   1.319   1.624   3.858 -0.1491 -0.0997  0.3352
 2966SOL    HW1 9033   1.298   1.537   3.893 -1.4476 -0.7347 -1.8280
 2966SOL    HW2 9034   1.411   1.618   3.833 -0.4988 -1.2600 -0.7835
 2967SOL     OW 9035   2.326   3.876   3.135 -0.1301  0.1917 -0.3757
 2967SOL    HW1 9036   2.255   3.921   3.180  2.3344  1.6235  2.3467
 2967SOL    HW2 9037   2.380   3.946   3.098  0.6323 -0.8000 -1.2078
 2968SOL     OW 9038   2.039   4.101   3.916  0.1457 -0.0722 -1.3827
 2968SOL    HW1 9039   1.994   4.067   3.838  0.9187 -0.3245 -1.7300
 2968SOL    HW2 9040   2.117   4.047   3.923  0.1942  0.0991 -0.5507
 2969SOL     OW 9041   0.479   4.737   2.950 -0.4123 -0.1057  0.4225
 2969SOL    HW1 9042   0.573   4.727   2.963 -0.6773 -2.2941  0.9249
 2969SOL    HW2 9043   0.470   4.771   2.861  0.8189 -0.7561  0.0353
 2970SOL     OW 9044   1.970   1.526   2.623 -0.5389  0.0574  0.4406
 2970SOL    HW1 9045   1.971   1.570   2.538 -0.4558 -2.5859 -1.0642
 2970SOL    HW2 9046   2.051   1.475   2.624 -1.1374 -0.9294  1.5453
 2971SOL     OW 9047   1.977   0.377   1.141  0.0588 -0.3501 -0.2338
 2971SOL    HW1 9048   1.940   0.309   1.198 -0.5305  0.4218  0.3384
 2971SOL    HW2 9049   2.039   0.331   1.085 -0.9281 -1.4971 -0.4281
 2972SOL     OW 9050   0.945   3.405   4.840  0.0844 -0.2024 -0.2620
 2972SOL    HW1 9051   0.870   3.377   4.788 -0.5442  2.3484 -0.8414
 2972SOL    HW2 9052   0.914   3.481   4.889  1.1974 -1.3628  2.5030
 2973SOL     OW 9053   0.827   1.852   0.724 -0.2455 -0.1425 -0.3105
 2973SOL    HW1 9054   0.869   1.937   0.708 -0.8322  0.0599 -0.8001
 2973SOL    HW2 9055   0.900   1.790   0.726  0.3215  0.5318  1.3515
 2974SOL     OW 9056   1.187   4.628   0.218 -0.2804 -0.0655 -0.8287
 2974SOL    HW1 9057   1.111   4.656   0.270  0.4889 -1.8009  1.3895
 2974SOL    HW2 9058   1.262   4.668   0.262  0.3512 -1.1989 -0.8335
 2975SOL     OW 9059   1.387   3.973   4.736 -0.1337  0.1354  0.4478
 2975SOL    HW1 9060   1.367   3.880   4.734  0.0709  0.0292  2.1206
 2975SOL    HW2 9061   1.305   4.015   4.764  0.2763  0.2686  1.4834
 2976SOL     OW 9062   1.483   3.979   2.077 -0.0097  0.1483 -0.4100
 2976SOL    HW1 9063   1.404   4.032   2.065  1.1233  1.8410 -0.7930
 2976SOL    HW2 9064   1.551   4.042   2.101  1.6129 -0.9961 -1.7277
 2977SOL     OW 9065   3.029   0.830   0.671 -0.6922 -1.0897 -0.4814
 2977SOL    HW1 9066   3.021   0.752   0.616 -0.7272 -0.3037 -1.6284
 2977SOL    HW2 9067   3.122   0.852   0.667 -0.8951 -0.3207 -1.2596
 2978SOL     OW 9068   4.851   3.547   2.476  0.2260  0.2750  0.2999
 2978SOL    HW1 9069   4.848   3.514   2.566 -0.9105  0.7685  0.4648
 2978SOL    HW2 9070   4.943   3.539   2.450  0.3026 -1.3281  0.9423
 2979SOL     OW 9071   1.387   2.038   4.790  0.5855 -0.1109  0.3513
 2979SOL    HW1 9072   1.298   2.004   4.781  1.0584 -1.5560  0.9087
 2979SOL    HW2 9073   1.380   2.109   4.853 -0.3758  0.6792 -0.6041
 2980SOL     OW 9074  -0.023   0.909   2.973 -0.2235  0.4416 -0.4016
 2980SOL    HW1 9075   0.072   0.901   2.962 -0.1358  0.2494  0.4437
 2980SOL    HW2 9076  -0.036   0.927   3.066 -1.1575 -2.7553  0.2161
 2981SOL     OW 9077   4.420   2.991   0.636  0.2456  0.4101  0.2152
 2981SOL    HW1 9078   4.479   2.923   0.666 -0.5302 -1.4467 -2.1450
 2981SOL    HW2 9079   4.334   2.964   0.667  0.2503  1.9230  1.7243
 2982SOL     OW 9080   2.956   0.133   2.901  0.2597 -0.0457  0.5943
 2982SOL    HW1 9081   2.905   0.075   2.958  1.6577 -1.0342  0.8810
 2982SOL    HW2 9082   2.933   0.222   2.931 -0.8797 -0.4710  1.0491
 2983SOL     OW 9083   2.759   1.005   3.699  0.5909 -0.6624  1.2424
 2983SOL    HW1 9084   2.771   0.942   3.770  1.9050 -1.1407  0.6231
 2983SOL    HW2 9085   2.816   1.079   3.722 -1.9354  0.9988  2.6610
 2984SOL     OW 9086   0.495   1.649   1.627  0.6844 -0.3365 -0.4206
 2984SOL    HW1 9087   0.567   1.711   1.634  0.3009  0.5873 -3.4543
 2984SOL    HW2 9088   0.537   1.566   1.606  0.9502 -0.1785 -0.5152
 2985SOL     OW 9089   2.250   3.990   2.083 -0.1492 -0.1954 -0.0111
 2985SOL    HW1 9090   2.306   4.029   2.150 -0.9832  2.7947 -0.8950
 2985SOL    HW2 9091   2.182   3.943   2.132  1.3290 -1.2714  1.1049
 2986SOL     OW 9092   0.034   0.274   3.268 -0.1779  0.7899  0.0848
 2986SOL    HW1 9093   0.122   0.290   3.234 -1.0362  1.3339 -2.0148
 2986SOL    HW2 9094  -0.020   0.261   3.190 -1.4985 -2.3243  1.3446
 2987SOL     OW 9095   4.724   1.593   3.151 -0.1737 -0.6210  0.0263
 2987SOL    HW1 9096   4.670   1.632   3.220 -1.9326  0.6866 -1.9958
 2987SOL    HW2 9097   4.803   1.647   3.149  0.1288 -0.9795  1.3041
 2988SOL     OW 9098   2.438   0.608   0.761  0.0254 -0.2934 -0.9299
 2988SOL    HW1 9099   2.522   0.564   0.774  0.7942  1.7867  2.1776
 2988SOL    HW2 9100   2.455   0.671   0.691  1.1313  0.1795 -0.2665
 2989SOL     OW 9101   4.096   0.431   4.069  0.1548 -0.4883  0.1385
 2989SOL    HW1 9102   4.164   0.457   4.006 -0.3094  0.5146  0.0315
 2989SOL    HW2 9103   4.042   0.509   4.079 -1.2215 -1.3895 -0.0710
 2990SOL     OW 9104   2.557   1.412   1.888  0.1748 -0.9505 -0.1672
 2990SOL    HW1 9105   2.566   1.431   1.795  1.3151 -0.4989  0.0071
 2990SOL    HW2 9106   2.586   1.493   1.931  0.3479 -1.4010  0.5767
 2991SOL     OW 9107   4.378   2.029   1.319 -0.0496  0.3656  0.4347
 2991SOL    HW1 9108   4.473   2.032   1.313 -0.0072 -0.9236  0.1156
 2991SOL    HW2 9109   4.360   1.965   1.389 -0.6801  0.7147  0.6067
 2992SOL     OW 9110   0.908   2.396   2.719  0.0913 -0.3600 -0.3755
 2992SOL    HW1 9111   0.874   2.470   2.768 -1.4761 -1.6340  0.5852
 2992SOL    HW2 9112   0.857   2.395   2.638 -1.4381 -1.5743  0.5454
 2993SOL     OW 9113   0.655   3.656   3.171 -0.0324  0.5062 -0.3765
 2993SOL    HW1 9114   0.596   3.713   3.122 -0.8033  0.2132  0.1898
 2993SOL    HW2 9115   0.616   3.569   3.165  1.5007 -0.1402 -1.8287
 2994SOL     OW 9116   2.052   0.158   0.974  0.2815  0.1017 -0.0964
 2994SOL    HW1 9117   2.134   0.169   0.926  0.4186 -3.4448 -0.9659
 2994SOL    HW2 9118   1.985   0.149   0.906 -0.2974 -0.2974  0.5093
 2995SOL     OW 9119   2.079   1.627   0.169  1.3346  0.3350  0.1870
 2995SOL    HW1 9120   2.049   1.658   0.083  0.0572  2.7985  1.4079
 2995SOL    HW2 9121   2.097   1.707   0.218  1.1020 -0.9630  2.5299
 2996SOL     OW 9122   3.762   4.196   4.868 -0.4793 -0.5102  0.0504
 2996SOL    HW1 9123   3.822   4.123   4.854 -0.9137 -0.6543 -1.1844
 2996SOL    HW2 9124   3.788   4.233   4.952  3.0244  1.0466 -1.5553
 2997SOL     OW 9125   3.877   4.386   4.214  0.0926 -0.8374  0.0955
 2997SOL    HW1 9126   3.811   4.388   4.146  1.0329 -0.9405 -0.8563
 2997SOL    HW2 9127   3.922   4.470   4.208  0.4368 -0.9994  0.3198
 2998SOL     OW 9128   2.316   2.952   4.700 -0.1285  0.3742 -0.1181
 2998SOL    HW1 9129   2.389   2.924   4.645 -0.3635 -0.5178  0.0149
 2998SOL    HW2 9130   2.264   2.873   4.714 -2.0113  1.2734 -1.5253
 2999SOL     OW 9131   2.511   4.085   4.754 -0.2596 -0.4263 -0.2355
 2999SOL    HW1 9132   2.598   4.095   4.793 -1.4971  3.4900  2.0057
 2999SOL    HW2 9133   2.522   4.116   4.664  0.4697  1.2347  0.3964
 3000SOL     OW 9134   3.319   0.763   3.448 -0.1769 -0.6554 -0.3849
 3000SOL    HW1 9135   3.399   0.718   3.475 -0.4987 -1.5183 -0.8068
 3000SOL    HW2 9136   3.293   0.814   3.524 -0.7390 -2.5387  0.7633
 3001SOL     OW 9137   4.987   0.349   1.776  0.0345 -0.0112  0.3518
 3001SOL    HW1 9138   5.080   0.350   1.756  0.3697 -0.3857  1.7805
 3001SOL    HW2 9139   4.978   0.402   1.855 -0.8692 -0.4369  0.5536
 3002SOL     OW 9140   2.961   2.112   1.853 -0.6714  0.0134  0.1927
 3002SOL    HW1 9141   2.903   2.173   1.898  1.7889  2.8995 -0.2145
 3002SOL    HW2 9142   3.015   2.074   1.923 -1.8559 -1.4233  0.3844
 3003SOL     OW 9143   4.806   0.644   1.710  0.6262 -0.4477  0.0907
 3003SOL    HW1 9144   4.789   0.627   1.803 -0.7124  1.2469  0.2099
 3003SOL    HW2 9145   4.770   0.567   1.665 -2.3052  0.3898  0.7786
 3004SOL     OW 9146   0.221   1.494   2.154  0.2736  0.3451 -0.1158
 3004SOL    HW1 9147   0.286   1.473   2.088  0.2807  1.9146 -0.6331
 3004SOL    HW2 9148   0.155   1.545   2.108 -2.4160 -2.7569 -0.0919
 3005SOL     OW 9149   1.249   2.834   3.571  0.4980  0.5666  1.0234
 3005SOL    HW1 9150   1.291   2.827   3.657  0.9547 -2.3095  0.6823
 3005SOL    HW2 9151   1.321   2.850   3.510  0.9133 -1.9530  0.7285
 3006SOL     OW 9152   2.246   0.375   1.775  0.1794  0.1138 -0.2872
 3006SOL    HW1 9153   2.163   0.354   1.817  1.2948 -1.1850  1.4208
 3006SOL    HW2 9154   2.226   0.374   1.681 -1.8459  0.5057  0.0862
 3007SOL     OW 9155   4.885   4.125   2.604 -0.5673  0.4007 -0.0047
 3007SOL    HW1 9156   4.954   4.165   2.550 -0.7334  2.0034  0.9066
 3007SOL    HW2 9157   4.844   4.061   2.547  0.9341  0.2184 -0.9373
 3008SOL     OW 9158   3.845   3.969   1.125  0.3178  0.1197 -0.2376
 3008SOL    HW1 9159   3.872   3.968   1.033 -0.2378  2.0992 -0.4638
 3008SOL    HW2 9160   3.918   3.927   1.171 -0.5179 -3.3523 -1.7699
 3009SOL     OW 9161   4.150   1.332   2.593 -0.2469 -0.4132  0.4240
 3009SOL    HW1 9162   4.189   1.249   2.623  1.6373  0.4194  0.3917
 3009SOL    HW2 9163   4.162   1.392   2.667 -1.1308 -0.0044  0.2530
 3010SOL     OW 9164   4.542   0.105   1.819  0.4288 -0.0908 -0.6492
 3010SOL    HW1 9165   4.492   0.152   1.753  0.4738 -1.2419 -1.5155
 3010SOL    HW2 9166   4.633   0.130   1.802  0.4328 -0.3256 -0.9709
 3011SOL     OW 9167   2.188   0.686   4.912 -0.0052 -0.0955  0.3420
 3011SOL    HW1 9168   2.257   0.737   4.955  0.8807 -2.0402  1.3314
 3011SOL    HW2 9169   2.178   0.727   4.826  1.7463  0.7968  0.5179
 3012SOL     OW 9170   0.378   2.593   0.077 -0.2222  0.4595 -0.0011
 3012SOL    HW1 9171   0.452   2.582   0.137 -0.1636  2.4280  0.3697
 3012SOL    HW2 9172   0.419   2.606  -0.009 -0.2614 -1.0960 -0.2760
 3013SOL     OW 9173   0.459   1.822   2.069 -0.3036  0.2018 -0.0807
 3013SOL    HW1 9174   0.465   1.727   2.073 -0.9458  0.2008  1.6234
 3013SOL    HW2 9175   0.366   1.841   2.080 -0.0585  1.0559  0.5934
 3014SOL     OW 9176   3.951   3.134   4.710 -0.3264 -0.2239  1.0540
 3014SOL    HW1 9177   3.966   3.049   4.668  0.8531 -0.4453  1.8742
 3014SOL    HW2 9178   3.903   3.185   4.645  1.1154 -0.6754 -0.4253
 3015SOL     OW 9179   3.260   0.160   1.105  0.0095 -0.0339 -0.0906
 3015SOL    HW1 9180   3.202   0.086   1.087 -0.6496  0.6215 -0.8036
 3015SOL    HW2 9181   3.282   0.152   1.197 -0.3660 -0.8922 -0.0614
 3016SOL     OW 9182   3.495   2.420   0.673 -0.2279 -0.2934  0.2584
 3016SOL    HW1 9183   3.467   2.423   0.765 -4.0890 -3.4074 -0.5188
 3016SOL    HW2 9184   3.444   2.488   0.630  1.3207  0.9287  0.2599
 3017SOL     OW 9185   0.849   0.078   3.352 -0.3898 -0.5117  0.4923
 3017SOL    HW1 9186   0.899   0.135   3.293 -1.1747 -1.5785 -1.2634
 3017SOL    HW2 9187   0.896   0.084   3.435  1.2007  0.4629 -0.4189
 3018SOL     OW 9188   4.571   0.959   2.103  0.3718  0.2843  0.2905
 3018SOL    HW1 9189   4.586   0.941   2.196 -0.5727 -1.4859  0.1518
 3018SOL    HW2 9190   4.527   0.880   2.071 -0.3506  1.3320 -1.4001
 3019SOL     OW 9191   2.199   3.739   1.935  0.3024  0.6703  0.7069
 3019SOL    HW1 9192   2.210   3.810   1.999  2.6701  1.0627 -0.0342
 3019SOL    HW2 9193   2.278   3.687   1.943  0.5442  0.5564 -1.6620
 3020SOL     OW 9194   0.947   2.651   1.671 -0.0226  0.1193  0.2816
 3020SOL    HW1 9195   0.880   2.587   1.649 -1.5187  1.0156  2.0087
 3020SOL    HW2 9196   0.938   2.665   1.765 -0.0415  3.1414 -0.0633
 3021SOL     OW 9197   3.222   2.626   2.324  0.1888 -0.1708 -0.0738
 3021SOL    HW1 9198   3.305   2.672   2.337 -0.5923  1.1730  0.3821
 3021SOL    HW2 9199   3.212   2.572   2.402  1.5908 -1.9522 -1.0633
 3022SOL     OW 9200   2.100   3.856   0.516  0.1525 -0.0992  0.1610
 3022SOL    HW1 9201   2.180   3.903   0.539  0.2813  1.1636 -2.5044
 3022SOL    HW2 9202   2.048   3.920   0.467 -1.9537 -1.2762  0.7314
 3023SOL     OW 9203   1.900   0.808   2.931 -0.5525 -0.2739  0.0866
 3023SOL    HW1 9204   1.968   0.764   2.981 -1.0448  1.1407  2.1362
 3023SOL    HW2 9205   1.907   0.772   2.842 -0.3071 -3.6581  1.3631
 3024SOL     OW 9206   2.696   0.469   0.825 -0.2988 -0.4315 -0.4594
 3024SOL    HW1 9207   2.767   0.531   0.807 -1.3292  1.2548  0.9749
 3024SOL    HW2 9208   2.739   0.394   0.865  0.7177  0.5263  0.3128
 3025SOL     OW 9209   3.577   3.275   0.536 -0.4512 -0.5800  0.3287
 3025SOL    HW1 9210   3.503   3.310   0.487 -1.7953 -1.1040  1.8828
 3025SOL    HW2 9211   3.653   3.323   0.503 -1.6091  0.6427 -0.6690
 3026SOL     OW 9212   0.368   3.929   0.193  0.0870  0.0784 -0.2559
 3026SOL    HW1 9213   0.276   3.931   0.166 -0.2283 -3.1945  0.0795
 3026SOL    HW2 9214   0.415   3.908   0.113  0.0043 -2.1497  0.2052
 3027SOL     OW 9215   1.751   2.376   2.854  0.7699 -0.0676 -0.2245
 3027SOL    HW1 9216   1.815   2.330   2.908  0.1124  0.3055  0.9042
 3027SOL    HW2 9217   1.785   2.466   2.847  0.8680 -0.1226 -0.4512
 3028SOL     OW 9218   3.584   0.289   1.814  1.0948  0.6515 -0.6388
 3028SOL    HW1 9219   3.620   0.378   1.804 -0.7653  1.4047 -0.9533
 3028SOL    HW2 9220   3.564   0.281   1.907  0.1641  1.0242 -0.7983
 3029SOL     OW 9221   2.964   2.933   2.814  0.2760 -0.7242  0.3436
 3029SOL    HW1 9222   2.981   2.932   2.720  0.2398 -0.4883  0.3347
 3029SOL    HW2 9223   2.975   2.841   2.841  1.4013 -0.6168  0.3059
 3030SOL     OW 9224   2.865   1.277   2.229  0.0487  0.7065 -0.0684
 3030SOL    HW1 9225   2.786   1.284   2.283 -0.4508  0.2650 -0.7247
 3030SOL    HW2 9226   2.937   1.297   2.289 -0.4599 -0.1952  0.8812
 3031SOL     OW 9227   3.776   1.639   1.914  0.6854  0.3229  0.0579
 3031SOL    HW1 9228   3.687   1.637   1.880  1.1155  2.1715 -1.3421
 3031SOL    HW2 9229   3.831   1.652   1.837  2.0827  0.3717  1.0213
 3032SOL     OW 9230   3.063   3.489   1.315 -0.2631  0.1915  0.4501
 3032SOL    HW1 9231   3.124   3.560   1.292 -0.6790  0.2309 -0.6075
 3032SOL    HW2 9232   3.067   3.483   1.410  0.3551  1.1265  0.4925
 3033SOL     OW 9233   3.407   2.784   2.469 -0.7633 -0.1263 -0.3219
 3033SOL    HW1 9234   3.387   2.862   2.416  1.1859 -0.0618 -1.0536
 3033SOL    HW2 9235   3.476   2.813   2.529  0.6138 -1.4561 -1.1854
 3034SOL     OW 9236   4.304   0.649   3.456  0.0731 -0.2754 -0.5240
 3034SOL    HW1 9237   4.381   0.620   3.408  0.5708  0.4128 -0.1583
 3034SOL    HW2 9238   4.338   0.709   3.522 -0.3916 -2.1466  1.5837
 3035SOL     OW 9239   0.342   4.254   5.030  0.5574 -0.1913  0.4108
 3035SOL    HW1 9240   0.381   4.174   4.995  1.7622  0.4648  0.1683
 3035SOL    HW2 9241   0.305   4.299   4.954  1.4629  0.3114  0.2489
 3036SOL     OW 9242   4.233   4.678   2.162  0.3764 -0.2154 -0.2953
 3036SOL    HW1 9243   4.219   4.734   2.238  1.9594  0.8343 -0.7329
 3036SOL    HW2 9244   4.238   4.738   2.088  0.7322 -1.0463 -0.9609
 3037SOL     OW 9245   1.281   2.745   0.779 -0.0208 -0.3091 -0.3136
 3037SOL    HW1 9246   1.319   2.830   0.803 -1.7454  0.6178 -0.6851
 3037SOL    HW2 9247   1.331   2.681   0.830  0.7756  1.0017  0.6169
 3038SOL     OW 9248   0.309   0.086   3.168 -0.6638 -0.2765 -1.5827
 3038SOL    HW1 9249   0.297   0.006   3.220  2.2496  0.0946 -0.1038
 3038SOL    HW2 9250   0.356   0.057   3.090  0.8961 -0.0389 -0.7858
 3039SOL     OW 9251   4.807   2.959   1.311 -0.0934  0.0074 -0.7662
 3039SOL    HW1 9252   4.741   2.902   1.350  2.3039 -0.7259  2.7006
 3039SOL    HW2 9253   4.858   2.900   1.255 -0.2938 -0.2430 -0.6884
 3040SOL     OW 9254   4.207   4.736   1.723  0.4223  0.0719 -0.0503
 3040SOL    HW1 9255   4.212   4.654   1.772 -0.2357  0.4832  0.7346
 3040SOL    HW2 9256   4.170   4.799   1.785 -0.2754  0.6525 -1.0257
 3041SOL     OW 9257   4.022   3.658   1.089  0.1465  0.5469  0.0266
 3041SOL    HW1 9258   4.025   3.568   1.122 -0.0828  1.0664  1.5630
 3041SOL    HW2 9259   3.940   3.663   1.040 -0.9671  0.4732  1.7853
 3042SOL     OW 9260   1.856   2.947   2.292  0.3162 -0.1279 -0.1482
 3042SOL    HW1 9261   1.792   3.006   2.331  1.6443  1.0838  0.2812
 3042SOL    HW2 9262   1.821   2.927   2.205 -0.6008  0.5237  0.0554
 3043SOL     OW 9263   0.864   1.365   2.971 -0.7842  0.4200  0.3073
 3043SOL    HW1 9264   0.830   1.450   2.998 -0.2238  1.6722 -2.5971
 3043SOL    HW2 9265   0.837   1.305   3.041 -2.8259  2.6167  1.5382
 3044SOL     OW 9266   4.765   4.076   1.634  0.3892 -0.1988  0.0271
 3044SOL    HW1 9267   4.673   4.067   1.658  0.6013 -0.4621  0.7747
 3044SOL    HW2 9268   4.769   4.050   1.542 -0.2437 -0.3967  0.0535
 3045SOL     OW 9269   3.065   4.655   3.294  0.2882 -0.2999 -0.0807
 3045SOL    HW1 9270   2.999   4.590   3.269  0.7359 -0.3419 -1.2294
 3045SOL    HW2 9271   3.022   4.739   3.283  0.2664 -0.3445 -0.3480
 3046SOL     OW 9272   4.831   4.518   4.671 -0.4895 -0.1129  0.2042
 3046SOL    HW1 9273   4.893   4.533   4.600 -0.6392  1.0172  0.2964
 3046SOL    HW2 9274   4.845   4.591   4.731 -1.1583 -0.4355  0.7663
 3047SOL     OW 9275   0.836   2.960   0.104 -0.5321 -0.1717 -0.0686
 3047SOL    HW1 9276   0.902   2.979   0.037  0.9573 -2.6119  0.5912
 3047SOL    HW2 9277   0.887   2.941   0.182 -1.9295 -2.8714  0.2767
 3048SOL     OW 9278   0.975   0.447   4.821 -0.1254 -0.2426 -0.2073
 3048SOL    HW1 9279   0.991   0.354   4.841  1.8696 -0.1305 -1.0449
 3048SOL    HW2 9280   1.027   0.494   4.886  0.2932  0.2474 -0.8944
 3049SOL     OW 9281   1.390   0.991   3.744  0.2257 -0.5683  0.2128
 3049SOL    HW1 9282   1.441   0.931   3.798  0.2734 -0.4397  0.3087
 3049SOL    HW2 9283   1.427   0.980   3.656 -1.3053 -2.4495 -0.2670
 3050SOL     OW 9284   0.948   0.879   0.113 -0.4218  0.1506 -0.3954
 3050SOL    HW1 9285   0.945   0.937   0.189 -1.0129  0.5879 -0.7448
 3050SOL    HW2 9286   0.948   0.791   0.151 -1.0258  0.3577  0.1183
 3051SOL     OW 9287   4.046   1.203   3.832  0.1881 -0.2091 -0.4904
 3051SOL    HW1 9288   4.046   1.137   3.901 -1.0122  0.4252  0.1381
 3051SOL    HW2 9289   3.954   1.228   3.822  0.6069  1.3530 -0.7258
 3052SOL     OW 9290   4.617   0.839   2.336 -0.3942 -0.3803 -0.1786
 3052SOL    HW1 9291   4.571   0.755   2.340 -0.1269 -0.5612 -0.7967
 3052SOL    HW2 9292   4.594   0.883   2.418 -1.5480 -0.5321 -0.4112
 3053SOL     OW 9293   0.518   1.822   3.635 -0.0394  0.0519 -0.5494
 3053SOL    HW1 9294   0.448   1.829   3.570 -0.3601 -0.4764 -0.2627
 3053SOL    HW2 9295   0.503   1.738   3.679 -1.0300  1.2575  1.5756
 3054SOL     OW 9296   0.254   3.022   0.737  0.8272  0.0059  0.0329
 3054SOL    HW1 9297   0.220   2.933   0.751  0.6221  0.3322  1.8305
 3054SOL    HW2 9298   0.189   3.063   0.679 -0.1160 -0.4229  0.7532
 3055SOL     OW 9299   4.549   1.912   2.013  0.2507  0.2722 -0.5545
 3055SOL    HW1 9300   4.605   1.982   1.979  0.1854  0.9672  0.7062
 3055SOL    HW2 9301   4.594   1.881   2.092  0.0845 -0.8641 -0.8787
 3056SOL     OW 9302   2.836   0.954   0.521  0.3654 -0.5372  0.3423
 3056SOL    HW1 9303   2.891   0.920   0.591 -1.3889 -0.5254  1.8221
 3056SOL    HW2 9304   2.747   0.949   0.557 -0.4880  0.4340 -1.5141
 3057SOL     OW 9305   3.342   0.718   0.167  0.1700 -0.1338 -0.5795
 3057SOL    HW1 9306   3.395   0.795   0.188  1.6292 -1.1132 -0.5406
 3057SOL    HW2 9307   3.405   0.646   0.163 -1.2525 -1.4536  0.0369
 3058SOL     OW 9308   4.760   3.203   4.095  0.3510 -0.2792 -0.0895
 3058SOL    HW1 9309   4.768   3.238   4.184  1.6486 -0.4618 -0.1069
 3058SOL    HW2 9310   4.698   3.260   4.051 -1.7403 -1.2520  1.4466
 3059SOL     OW 9311   4.537   3.288   1.203 -0.3059  0.0405 -0.1236
 3059SOL    HW1 9312   4.451   3.250   1.187 -0.4163  1.1271 -2.4273
 3059SOL    HW2 9313   4.532   3.376   1.167  1.3106  0.7073  1.1251
 3060SOL     OW 9314   4.796   0.396   0.697 -0.5768  0.0553 -0.6157
 3060SOL    HW1 9315   4.862   0.453   0.738  0.3242  0.3883 -2.4508
 3060SOL    HW2 9316   4.845   0.319   0.669 -2.1013 -2.9406  3.8141
 3061SOL     OW 9317   4.888   1.092   4.506  0.0651 -0.4421  0.2839
 3061SOL    HW1 9318   4.906   1.185   4.523 -2.0628  0.0878 -0.1226
 3061SOL    HW2 9319   4.841   1.062   4.583 -0.4997 -0.7989 -0.1966
 3062SOL     OW 9320   1.691   1.021   1.968  0.6490  0.3002  0.1326
 3062SOL    HW1 9321   1.779   1.041   2.001  0.2604  0.3634  1.1506
 3062SOL    HW2 9322   1.677   1.085   1.898  0.2070  2.3655  2.0157
 3063SOL     OW 9323   3.907   0.881   1.516  0.0436 -0.2590  0.1528
 3063SOL    HW1 9324   3.995   0.914   1.501 -0.2097 -0.1016 -1.1437
 3063SOL    HW2 9325   3.875   0.858   1.428 -0.6736 -1.6747  0.7421
 3064SOL     OW 9326   3.374   1.804   2.671 -0.3281  0.1214  1.1009
 3064SOL    HW1 9327   3.464   1.787   2.696 -0.3645 -1.1044  0.4686
 3064SOL    HW2 9328   3.349   1.881   2.722  1.6753  1.7058 -0.1851
 3065SOL     OW 9329   1.602   0.854   4.164 -0.3871  0.7841  0.6864
 3065SOL    HW1 9330   1.639   0.821   4.246 -1.9876 -3.5587 -0.0654
 3065SOL    HW2 9331   1.545   0.926   4.191  2.5272  2.5759  2.6997
 3066SOL     OW 9332   2.633   0.536   2.195  0.0999 -0.6565 -0.5799
 3066SOL    HW1 9333   2.686   0.471   2.149  0.8537  0.1682 -0.9068
 3066SOL    HW2 9334   2.688   0.615   2.196 -0.0126 -0.5628  1.4905
 3067SOL     OW 9335   4.831   1.040   1.068 -0.2183  0.0417 -0.1713
 3067SOL    HW1 9336   4.870   0.982   1.003 -0.0951  1.6419 -1.5964
 3067SOL    HW2 9337   4.756   1.079   1.024 -0.2759  0.9972  0.7220
 3068SOL     OW 9338   1.417   3.595   4.913 -0.3357  0.0908  0.0428
 3068SOL    HW1 9339   1.474   3.530   4.953  2.0818  2.4937  0.7821
 3068SOL    HW2 9340   1.369   3.634   4.986  0.5542  1.2206  0.0523
 3069SOL     OW 9341   1.768   1.357   0.113  0.5725  0.4861  0.8585
 3069SOL    HW1 9342   1.792   1.265   0.122 -0.4634 -0.2308 -2.5308
 3069SOL    HW2 9343   1.704   1.359   0.042 -0.1487  3.7408  1.4493
 3070SOL     OW 9344   4.299   1.977   0.288  0.8041 -0.1356  0.1101
 3070SOL    HW1 9345   4.314   2.016   0.202  0.8475 -0.2942  0.0457
 3070SOL    HW2 9346   4.386   1.949   0.316  0.3499 -3.4629 -1.4026
 3071SOL     OW 9347   4.578   2.028   4.179 -0.1158 -0.0680 -0.3841
 3071SOL    HW1 9348   4.656   1.976   4.202 -0.1510  0.0846  0.0811
 3071SOL    HW2 9349   4.562   2.006   4.087  0.3648 -0.2481 -0.4309
 3072SOL     OW 9350   2.260   3.725   4.095 -0.5454  0.1940  0.0399
 3072SOL    HW1 9351   2.309   3.775   4.160  0.2750 -0.9287  0.3148
 3072SOL    HW2 9352   2.181   3.777   4.079  0.2729  1.5668  0.3007
 3073SOL     OW 9353   0.255   1.887   3.760  0.3957 -0.3641 -0.0416
 3073SOL    HW1 9354   0.284   1.962   3.812 -1.0879  0.9865 -1.0505
 3073SOL    HW2 9355   0.310   1.890   3.682  0.3167 -0.2968 -0.0954
 3074SOL     OW 9356   1.519   0.760   0.691  0.3473  0.3912  0.2281
 3074SOL    HW1 9357   1.607   0.725   0.706  0.6570  1.1529  0.2008
 3074SOL    HW2 9358   1.491   0.793   0.776 -0.5243 -1.1914  0.5847
 3075SOL     OW 9359   3.777   3.961   1.542  0.0123 -0.4745  0.1340
 3075SOL    HW1 9360   3.719   3.970   1.466 -1.7072 -0.8050  1.3440
 3075SOL    HW2 9361   3.861   3.994   1.512 -0.4285 -1.2241 -2.1268
 3076SOL     OW 9362   2.223   2.254   4.400 -0.8567 -0.1747  0.8714
 3076SOL    HW1 9363   2.172   2.334   4.413 -1.2501 -0.0400 -1.1893
 3076SOL    HW2 9364   2.314   2.282   4.415 -1.1531  0.1123  2.3069
 3077SOL     OW 9365   0.593   0.873   2.172  0.0487 -1.0571 -0.1544
 3077SOL    HW1 9366   0.503   0.885   2.199  0.4648  0.6581  0.6050
 3077SOL    HW2 9367   0.594   0.895   2.079 -0.3301 -1.1697 -0.1835
 3078SOL     OW 9368   1.703   1.997   1.073  0.0992  0.5914 -0.2333
 3078SOL    HW1 9369   1.798   1.998   1.063  0.6630 -3.0344  2.5512
 3078SOL    HW2 9370   1.669   1.996   0.984  2.5166  2.9656 -1.3280
 3079SOL     OW 9371   4.168   3.094   0.321 -0.2786 -0.2315  0.4359
 3079SOL    HW1 9372   4.167   3.008   0.279  0.1270  0.4054 -0.9355
 3079SOL    HW2 9373   4.171   3.157   0.248  0.1093  0.9337  1.4154
 3080SOL     OW 9374   2.712   0.880   3.968 -0.3710 -0.0784  0.6481
 3080SOL    HW1 9375   2.650   0.921   4.028  0.7122  1.8943  0.4922
 3080SOL    HW2 9376   2.785   0.853   4.023  0.3884  1.2591  0.3531
 3081SOL     OW 9377   3.235   4.082   4.838  0.4079 -0.8663  0.2903
 3081SOL    HW1 9378   3.159   4.079   4.780  1.6846 -0.2776 -1.4633
 3081SOL    HW2 9379   3.258   3.990   4.853 -0.2901 -1.0322  0.3993
 3082SOL     OW 9380   2.362   1.108   1.673 -0.4650 -0.3886 -0.2735
 3082SOL    HW1 9381   2.331   1.026   1.637  0.5841 -0.7638 -0.3328
 3082SOL    HW2 9382   2.430   1.083   1.736 -0.9006  0.3676  0.5303
 3083SOL     OW 9383   0.447   0.283   4.532  0.2087  0.2137 -0.2120
 3083SOL    HW1 9384   0.496   0.365   4.532 -1.9116  1.7894 -4.4644
 3083SOL    HW2 9385   0.366   0.303   4.579 -0.0489  0.3966 -0.7269
 3084SOL     OW 9386   3.469   4.810   3.911 -0.2489 -0.2191  0.1178
 3084SOL    HW1 9387   3.386   4.778   3.948 -1.4861  0.4468 -1.8966
 3084SOL    HW2 9388   3.475   4.766   3.826  0.5326  1.1076 -0.5414
 3085SOL     OW 9389   1.822   2.048   0.090  0.7155  0.0906  0.4099
 3085SOL    HW1 9390   1.861   2.041   0.004  0.5040  1.7280  0.1362
 3085SOL    HW2 9391   1.783   1.962   0.107 -0.4032  0.1166 -1.7133
 3086SOL     OW 9392   4.576   4.545   4.579  0.6661 -0.4958 -1.0204
 3086SOL    HW1 9393   4.649   4.595   4.617 -0.2891  1.6501 -1.8374
 3086SOL    HW2 9394   4.614   4.461   4.555  2.6969  0.2963 -0.7795
 3087SOL     OW 9395   3.596   2.652   1.904  0.3132  0.0660  0.3887
 3087SOL    HW1 9396   3.645   2.591   1.959 -1.0642 -1.7360 -0.2880
 3087SOL    HW2 9397   3.520   2.676   1.956 -0.3817 -0.7139 -0.2351
 3088SOL     OW 9398   2.076   2.827   4.181  0.0479 -0.0392 -0.0676
 3088SOL    HW1 9399   2.128   2.905   4.162 -0.9941  0.6968 -0.0132
 3088SOL    HW2 9400   2.128   2.754   4.147  2.5722  0.2816  2.6790
 3089SOL     OW 9401   4.756   0.114   4.441 -0.0211  0.2671 -0.7234
 3089SOL    HW1 9402   4.808   0.095   4.363  2.0423  1.7995  0.1767
 3089SOL    HW2 9403   4.743   0.029   4.483  2.1008 -0.1680 -0.8367
 3090SOL     OW 9404   2.263   3.899   0.742 -0.3951  0.0752 -0.8080
 3090SOL    HW1 9405   2.209   3.962   0.789 -0.2322  0.4260 -1.0911
 3090SOL    HW2 9406   2.205   3.824   0.726 -0.5043  0.0376 -0.2249
 3091SOL     OW 9407   0.148   2.751   2.273  0.0868  0.2624 -0.4044
 3091SOL    HW1 9408   0.217   2.818   2.275  0.6222 -0.2805 -0.3593
 3091SOL    HW2 9409   0.195   2.668   2.282 -0.6711 -0.0617  0.9278
 3092SOL     OW 9410   2.577   2.239   1.424  0.2047 -0.2357 -0.0001
 3092SOL    HW1 9411   2.568   2.333   1.415 -1.7720 -0.5142 -1.5844
 3092SOL    HW2 9412   2.550   2.221   1.514  0.2349  0.6693  0.1983
 3093SOL     OW 9413   4.835   1.017   2.716 -0.2409 -0.7759 -0.1453
 3093SOL    HW1 9414   4.911   1.007   2.774 -1.1640 -1.4623  0.9834
 3093SOL    HW2 9415   4.801   1.104   2.735 -0.5624 -1.0130  0.3866
 3094SOL     OW 9416   2.241   3.468   2.822  0.2073 -0.3969 -0.1679
 3094SOL    HW1 9417   2.285   3.547   2.854 -0.1775  0.0604 -0.7467
 3094SOL    HW2 9418   2.173   3.450   2.887 -1.7836  1.5895 -1.5737
 3095SOL     OW 9419   1.491   4.321   3.099  0.2346  0.5423  0.2075
 3095SOL    HW1 9420   1.431   4.247   3.111 -1.1246  1.7907  1.4813
 3095SOL    HW2 9421   1.551   4.315   3.173  0.9877 -0.0239 -0.4261
 3096SOL     OW 9422   0.798   4.878   0.260  0.6666  0.2244 -0.3536
 3096SOL    HW1 9423   0.788   4.825   0.181 -0.4282 -0.3906  0.1770
 3096SOL    HW2 9424   0.748   4.957   0.242  0.5762  0.1688 -0.3439
 3097SOL     OW 9425   4.950   1.528   4.129 -0.1431 -0.1311  0.6772
 3097SOL    HW1 9426   4.984   1.614   4.107 -0.0032 -0.1763  0.7137
 3097SOL    HW2 9427   5.023   1.468   4.111 -0.4647 -0.3230 -0.0096
 3098SOL     OW 9428   2.370   4.355   0.864 -0.1033 -0.3446  0.5301
 3098SOL    HW1 9429   2.424   4.302   0.805 -0.6368  0.0713 -0.3568
 3098SOL    HW2 9430   2.418   4.355   0.946  1.1757 -0.1178 -0.1840
 3099SOL     OW 9431   2.721   2.390   1.156 -0.0359 -0.0120  0.4256
 3099SOL    HW1 9432   2.750   2.427   1.073 -1.0489 -0.2073 -0.0287
 3099SOL    HW2 9433   2.700   2.299   1.135 -0.3809 -0.0388  0.8788
 3100SOL     OW 9434   2.868   2.790   4.402  0.6602  0.0443 -0.2958
 3100SOL    HW1 9435   2.816   2.814   4.478 -0.4270  0.0837 -1.0238
 3100SOL    HW2 9436   2.810   2.806   4.327  0.6120 -2.7459 -0.9851
 3101SOL     OW 9437   3.102   2.927   3.801 -0.6918  0.1824 -0.0520
 3101SOL    HW1 9438   3.153   3.000   3.836  1.2758 -1.0553 -0.2257
 3101SOL    HW2 9439   3.067   2.883   3.879 -0.8117  0.5530  0.1071
 3102SOL     OW 9440   2.979   0.045   3.578 -0.3109 -0.0130  0.1015
 3102SOL    HW1 9441   2.904   0.059   3.635 -2.0588  0.7121 -2.2454
 3102SOL    HW2 9442   3.032   0.124   3.588  1.0296 -1.1117  2.8454
 3103SOL     OW 9443   1.073   1.702   0.305 -0.2008 -0.1729  0.3706
 3103SOL    HW1 9444   1.133   1.631   0.284 -0.4250  0.1114 -1.4484
 3103SOL    HW2 9445   1.123   1.782   0.287 -1.3907  0.0666 -2.2966
 3104SOL     OW 9446   1.195   3.441   3.149  0.0108 -0.0871 -0.0870
 3104SOL    HW1 9447   1.120   3.499   3.135 -1.3845 -1.9890 -1.0305
 3104SOL    HW2 9448   1.238   3.436   3.063  0.8472  0.4553  0.2823
 3105SOL     OW 9449   3.661   0.030   3.275 -0.1414 -0.5594 -0.2949
 3105SOL    HW1 9450   3.640   0.076   3.194 -2.2683  0.5938  0.8261
 3105SOL    HW2 9451   3.674   0.100   3.339  0.7329 -1.4663  0.5536
 3106SOL     OW 9452   4.861   0.618   0.286  0.4829 -0.4391  0.1622
 3106SOL    HW1 9453   4.855   0.605   0.192 -0.8696  1.0575 -0.0030
 3106SOL    HW2 9454   4.804   0.551   0.324  1.5670 -1.4902 -0.0082
 3107SOL     OW 9455   2.085   4.679   1.257  0.2497 -1.0085 -0.1552
 3107SOL    HW1 9456   2.099   4.607   1.195  0.9162  0.4969 -1.8442
 3107SOL    HW2 9457   2.130   4.651   1.337 -1.2205 -3.3046 -0.0374
 3108SOL     OW 9458   1.474   3.751   2.243  0.3450  0.1226 -0.0009
 3108SOL    HW1 9459   1.419   3.783   2.315 -0.7008 -0.2712 -0.5933
 3108SOL    HW2 9460   1.477   3.823   2.181  0.8275  0.2799  0.1991
 3109SOL     OW 9461   3.181   2.422   4.353  0.8036 -0.1511  0.2464
 3109SOL    HW1 9462   3.107   2.449   4.407  0.0226  0.0114 -0.8646
 3109SOL    HW2 9463   3.221   2.350   4.402  1.9843  1.9211  2.4941
 3110SOL     OW 9464   4.530   1.105   4.560  0.0122  0.4988  0.2008
 3110SOL    HW1 9465   4.590   1.035   4.585  0.2893  0.3159 -0.9309
 3110SOL    HW2 9466   4.553   1.178   4.618  1.8128  0.6735 -0.6635
 3111SOL     OW 9467   4.620   4.325   2.664  0.2350 -0.8180 -0.7510
 3111SOL    HW1 9468   4.581   4.243   2.634  0.2568 -0.6843 -1.1524
 3111SOL    HW2 9469   4.677   4.353   2.592  0.2337 -0.4532 -0.6149
 3112SOL     OW 9470   1.193   2.076   2.166  0.0353 -0.0254  0.6859
 3112SOL    HW1 9471   1.254   2.148   2.150 -0.9334  0.7735  0.5263
 3112SOL    HW2 9472   1.215   2.012   2.098  0.9112  0.0981  0.8347
 3113SOL     OW 9473   2.373   0.945   3.155  0.0303 -0.1788 -0.0138
 3113SOL    HW1 9474   2.418   1.029   3.167  0.2374 -0.4169  0.9239
 3113SOL    HW2 9475   2.288   0.957   3.198 -0.4822 -0.0254 -1.0232
 3114SOL     OW 9476   1.528   3.932   4.404 -0.2548 -0.5192  0.3076
 3114SOL    HW1 9477   1.600   3.992   4.385  0.8475 -1.8863 -0.0494
 3114SOL    HW2 9478   1.460   3.986   4.444  1.3067  0.6660  1.4437
 3115SOL     OW 9479   0.865   1.755   0.062 -0.5924 -0.5506  0.2382
 3115SOL    HW1 9480   0.826   1.722  -0.019 -0.5584  0.8144 -0.3487
 3115SOL    HW2 9481   0.954   1.718   0.062  0.4022  1.5638 -1.7673
 3116SOL     OW 9482   0.320   0.204   2.710  0.2907  0.0496 -0.1086
 3116SOL    HW1 9483   0.328   0.297   2.688 -0.8630  0.0222 -0.7089
 3116SOL    HW2 9484   0.228   0.192   2.733  0.5175 -0.8664  0.3880
 3117SOL     OW 9485   0.715   3.293   1.879  0.1713  0.1952 -0.1352
 3117SOL    HW1 9486   0.717   3.263   1.788  2.6477  0.5611 -0.2846
 3117SOL    HW2 9487   0.789   3.248   1.920 -0.3127  0.7882  1.4552
 3118SOL     OW 9488   3.949   0.588   3.828 -0.4148 -0.1798  0.5680
 3118SOL    HW1 9489   4.007   0.575   3.753 -1.3997 -0.2841 -0.1887
 3118SOL    HW2 9490   4.007   0.620   3.897  0.7849 -1.5715  0.2573
 3119SOL     OW 9491   0.633   4.998   1.719  0.6545  0.4928  0.1664
 3119SOL    HW1 9492   0.544   5.000   1.753  0.8029 -0.3976  0.6305
 3119SOL    HW2 9493   0.652   4.905   1.707  0.1893  0.7149 -3.5295
 3120SOL     OW 9494   3.778   1.057   3.565 -0.1710  0.0437 -0.5849
 3120SOL    HW1 9495   3.716   1.105   3.511 -0.2491  0.4470 -0.1444
 3120SOL    HW2 9496   3.833   1.009   3.503 -0.3986  0.3260 -1.0052
 3121SOL     OW 9497   2.121   3.471   3.441 -0.0265  0.1246 -0.1063
 3121SOL    HW1 9498   2.072   3.412   3.384  0.8699  0.5138 -1.3415
 3121SOL    HW2 9499   2.212   3.440   3.435  0.2412  0.8096  0.2816
 3122SOL     OW 9500   4.960   1.947   3.917  0.0047 -0.0155 -0.1139
 3122SOL    HW1 9501   4.874   1.952   3.874 -0.5147 -1.3683  0.7183
 3122SOL    HW2 9502   4.973   2.035   3.953 -1.6718 -0.1445  0.9161
 3123SOL     OW 9503   3.243   1.049   1.323  0.8526  0.1826  0.0908
 3123SOL    HW1 9504   3.156   1.087   1.331  0.0468 -0.7295 -3.0419
 3123SOL    HW2 9505   3.291   1.083   1.399 -2.1034  0.9130  1.7906
 3124SOL     OW 9506   2.496   3.956   1.788  0.6470  0.1511  0.1939
 3124SOL    HW1 9507   2.481   3.903   1.867  0.2142  0.8427  0.5850
 3124SOL    HW2 9508   2.417   4.009   1.780  1.2433  1.0237  0.0375
 3125SOL     OW 9509   2.654   1.190   2.021 -0.2246 -0.1358  0.1730
 3125SOL    HW1 9510   2.617   1.263   1.972 -0.1918 -0.9470 -1.1092
 3125SOL    HW2 9511   2.746   1.214   2.035 -0.3628  0.3287  0.3011
 3126SOL     OW 9512   1.729   1.688   0.749 -0.3944 -0.6354 -0.2612
 3126SOL    HW1 9513   1.698   1.745   0.678 -1.8216 -0.6548  0.3100
 3126SOL    HW2 9514   1.810   1.650   0.716  0.7294  1.8776 -0.5676
 3127SOL     OW 9515   0.405   3.149   1.310  0.4439  0.3219 -0.0849
 3127SOL    HW1 9516   0.395   3.190   1.396  1.6979  0.7756 -0.1356
 3127SOL    HW2 9517   0.465   3.207   1.263  0.0703 -0.1202 -1.1377
 3128SOL     OW 9518   4.799   3.192   1.180  0.3687  0.0390  0.3271
 3128SOL    HW1 9519   4.706   3.214   1.178  0.4551  0.6903  1.8447
 3128SOL    HW2 9520   4.806   3.123   1.246  1.1208  1.0452  1.3584
 3129SOL     OW 9521   3.644   1.158   1.029  0.0210  0.2249 -0.5349
 3129SOL    HW1 9522   3.686   1.217   1.092 -0.1591  1.8032 -1.8212
 3129SOL    HW2 9523   3.664   1.070   1.061  2.1796  0.9485  0.2699
 3130SOL     OW 9524   1.319   2.270   0.574  0.1353 -0.2408 -0.3501
 3130SOL    HW1 9525   1.374   2.331   0.525 -0.6926  0.7534 -0.0732
 3130SOL    HW2 9526   1.381   2.218   0.625  0.9920 -1.0361 -2.1209
 3131SOL     OW 9527   0.055   4.217   1.448  0.6105  0.2887 -0.5325
 3131SOL    HW1 9528   0.111   4.154   1.405  0.5281 -0.1742  0.0193
 3131SOL    HW2 9529   0.050   4.186   1.539  0.1302  0.7796 -0.3867
 3132SOL     OW 9530   0.495   0.749   3.382  0.0367 -0.1180 -0.1364
 3132SOL    HW1 9531   0.423   0.690   3.407  0.1397 -0.4143 -0.5278
 3132SOL    HW2 9532   0.574   0.695   3.389 -0.0296 -0.6107 -2.2462
 3133SOL     OW 9533   3.774   2.751   2.419  0.3235  0.2415 -0.0519
 3133SOL    HW1 9534   3.832   2.681   2.389  1.7686  0.9778  0.9002
 3133SOL    HW2 9535   3.781   2.819   2.352  3.3323  1.7694  1.6291
 3134SOL     OW 9536   0.338   4.851   3.367 -0.1676 -0.1647  0.0834
 3134SOL    HW1 9537   0.287   4.770   3.362 -0.3777 -0.0545  0.3633
 3134SOL    HW2 9538   0.423   4.829   3.330 -0.0901 -0.6257  0.5256
 3135SOL     OW 9539   4.852   4.755   4.825 -0.1641 -0.7182 -0.6693
 3135SOL    HW1 9540   4.940   4.794   4.825 -0.1939 -0.5998 -1.8222
 3135SOL    HW2 9541   4.817   4.775   4.912  1.4192 -1.8875  0.2812
 3136SOL     OW 9542   0.490   2.501   2.378 -0.0008 -0.2589  0.9717
 3136SOL    HW1 9543   0.449   2.473   2.461 -2.0377 -2.3067 -0.5879
 3136SOL    HW2 9544   0.422   2.487   2.312  1.8685  0.3836 -1.2136
 3137SOL     OW 9545   0.754   0.765   1.438  0.8327  0.4383 -0.7935
 3137SOL    HW1 9546   0.834   0.793   1.392  0.4063  1.4321 -0.9581
 3137SOL    HW2 9547   0.701   0.844   1.444  1.0738  0.4935  1.8491
 3138SOL     OW 9548   1.013   4.767   4.878  0.5228  0.0584 -0.3352
 3138SOL    HW1 9549   0.948   4.777   4.808  1.6699 -0.4065 -1.4998
 3138SOL    HW2 9550   1.042   4.856   4.898 -0.6252  0.2935  0.3705
 3139SOL     OW 9551   0.466   1.789   0.856  0.0643 -0.2302  0.3148
 3139SOL    HW1 9552   0.502   1.859   0.802  1.4352 -1.5823 -0.6264
 3139SOL    HW2 9553   0.435   1.724   0.793  0.6806 -1.3553  1.1298
 3140SOL     OW 9554   1.818   4.240   3.439  0.1358 -0.3284  0.0845
 3140SOL    HW1 9555   1.904   4.268   3.471 -0.2415  0.3859  0.4872
 3140SOL    HW2 9556   1.822   4.144   3.443  1.8150 -0.4647 -2.2758
 3141SOL     OW 9557   2.588   1.142   4.420 -0.2104 -0.2207 -0.7063
 3141SOL    HW1 9558   2.496   1.161   4.401 -0.3996 -2.7432 -2.8536
 3141SOL    HW2 9559   2.637   1.194   4.356 -0.3849 -1.5580 -1.9803
 3142SOL     OW 9560   4.204   0.758   2.341 -0.6969 -0.2501 -0.3318
 3142SOL    HW1 9561   4.137   0.789   2.280 -1.4442 -0.5759  0.3096
 3142SOL    HW2 9562   4.167   0.774   2.428  0.3577  0.2166  0.0523
 3143SOL     OW 9563   4.088   1.719   2.896 -0.8005 -1.2007 -0.3195
 3143SOL    HW1 9564   4.172   1.673   2.888 -0.8891 -1.2067 -1.3515
 3143SOL    HW2 9565   4.037   1.666   2.957 -0.3598 -1.6574 -0.3428
 3144SOL     OW 9566   3.566   0.161   2.656 -0.2304  0.3120  0.8565
 3144SOL    HW1 9567   3.501   0.183   2.722 -0.7261  0.4132  0.3401
 3144SOL    HW2 9568   3.540   0.211   2.579 -2.2024 -2.9617 -0.8393
 3145SOL     OW 9569   3.597   3.445   0.058 -0.5881  0.0263 -0.1155
 3145SOL    HW1 9570   3.652   3.490  -0.006 -0.1161 -0.1527  0.1533
 3145SOL    HW2 9571   3.568   3.515   0.117 -3.3017  0.6919 -2.0416
 3146SOL     OW 9572   4.070   4.935   3.176 -0.5292  0.9009  0.0864
 3146SOL    HW1 9573   4.055   4.960   3.085 -0.6978  0.2361 -0.0730
 3146SOL    HW2 9574   4.123   4.855   3.170 -1.8480 -0.0307  0.5375
 3147SOL     OW 9575   2.554   3.100   4.988  0.0895  0.1800  0.0775
 3147SOL    HW1 9576   2.628   3.159   5.005 -0.4865  1.3527 -1.2264
 3147SOL    HW2 9577   2.497   3.150   4.930 -0.6942 -1.4858 -0.6613
 3148SOL     OW 9578   4.831   4.853   2.158  0.2442  0.8359 -0.1618
 3148SOL    HW1 9579   4.775   4.818   2.227  2.4183 -0.3300  1.1163
 3148SOL    HW2 9580   4.832   4.948   2.174 -1.5719  0.9307 -0.4330
 3149SOL     OW 9581   4.434   1.662   3.745 -0.0709  0.0295  0.4870
 3149SOL    HW1 9582   4.341   1.680   3.730 -0.1160 -0.5535  0.0322
 3149SOL    HW2 9583   4.441   1.567   3.738  0.4122 -0.0102  1.3715
 3150SOL     OW 9584   0.166   0.936   4.889  0.4413 -0.1522 -0.6380
 3150SOL    HW1 9585   0.077   0.901   4.891  0.7237 -0.9499 -1.3058
 3150SOL    HW2 9586   0.222   0.858   4.894  1.1119  0.3725  0.4573
 3151SOL     OW 9587   1.072   2.015   4.732  0.7096 -0.4119 -0.1970
 3151SOL    HW1 9588   1.003   2.071   4.767  1.0753 -0.2514  0.2897
 3151SOL    HW2 9589   1.071   2.030   4.638  0.1752 -0.3074 -0.1734
 3152SOL     OW 9590   0.547   3.139   4.589 -0.3373  0.1718  0.0289
 3152SOL    HW1 9591   0.632   3.137   4.634 -0.1591  1.5790 -0.1862
 3152SOL    HW2 9592   0.485   3.163   4.658 -0.2567  1.0506 -0.1917
 3153SOL     OW 9593   1.503   4.014   1.091  0.2598  0.1216 -0.1119
 3153SOL    HW1 9594   1.513   3.982   1.181 -0.9039 -1.2031 -0.4262
 3153SOL    HW2 9595   1.409   4.012   1.075  0.5457 -1.4647 -1.9683
 3154SOL     OW 9596   3.879   4.307   0.760  0.2759 -0.1938 -0.8063
 3154SOL    HW1 9597   3.923   4.275   0.682  0.3203 -0.8077 -0.5371
 3154SOL    HW2 9598   3.839   4.230   0.799 -1.6131  0.4305 -1.3831
 3155SOL     OW 9599   0.918   2.680   4.439  0.6498  0.1951 -0.1165
 3155SOL    HW1 9600   0.914   2.681   4.343  1.6081 -2.3506 -0.2721
 3155SOL    HW2 9601   0.906   2.771   4.465 -0.7981  0.8014 -2.5855
 3156SOL     OW 9602   1.301   2.116   3.985 -0.1348 -0.6793  0.2435
 3156SOL    HW1 9603   1.281   2.168   4.062  3.0024 -0.1219  0.8505
 3156SOL    HW2 9604   1.384   2.152   3.952 -1.6527 -0.4081 -3.8860
 3157SOL     OW 9605   3.000   4.700   4.328  0.0764 -0.4606  0.4760
 3157SOL    HW1 9606   3.043   4.650   4.259  0.5593 -0.2507  0.6198
 3157SOL    HW2 9607   2.939   4.639   4.369 -0.7470 -0.3974 -0.6028
 3158SOL     OW 9608   0.383   4.013   4.874  0.4462  0.0831 -0.0343
 3158SOL    HW1 9609   0.451   4.050   4.818 -0.7486  0.4297 -1.3213
 3158SOL    HW2 9610   0.406   3.921   4.883  1.2730  0.2754 -0.1330
 3159SOL     OW 9611   1.689   3.308   3.617  0.1171  0.6462  0.4207
 3159SOL    HW1 9612   1.663   3.382   3.563  0.7797  0.8105  0.3178
 3159SOL    HW2 9613   1.609   3.256   3.627  0.0043  0.5300 -0.8417
 3160SOL     OW 9614   4.400   3.440   3.787 -0.4153  0.2820  0.2808
 3160SOL    HW1 9615   4.365   3.379   3.722 -0.6174 -1.3163  1.8231
 3160SOL    HW2 9616   4.392   3.394   3.871  3.2743  0.6987  1.0436
 3161SOL     OW 9617   1.230   4.023   1.120 -0.6668 -0.0900  0.1615
 3161SOL    HW1 9618   1.137   4.014   1.099 -0.6408  1.1540 -0.5559
 3161SOL    HW2 9619   1.247   4.116   1.113  1.1302 -0.5013 -1.9068
 3162SOL     OW 9620   2.799   1.479   2.041 -0.6789 -0.6427  0.2456
 3162SOL    HW1 9621   2.813   1.416   2.111 -2.2765 -2.4776 -0.9751
 3162SOL    HW2 9622   2.860   1.452   1.971  0.8153  1.0925  0.7954
 3163SOL     OW 9623   4.608   2.648   1.832  0.0529  0.4015 -0.7160
 3163SOL    HW1 9624   4.534   2.595   1.801 -0.8375  1.6394 -0.7675
 3163SOL    HW2 9625   4.583   2.675   1.920  2.1702 -2.3381  0.9265
 3164SOL     OW 9626   3.856   1.255   2.534 -0.2672  0.0162 -0.2198
 3164SOL    HW1 9627   3.899   1.285   2.454 -1.2242 -2.1287 -1.6331
 3164SOL    HW2 9628   3.907   1.179   2.562 -1.3105 -0.7339 -0.2421
 3165SOL     OW 9629   0.880   4.273   1.667  0.0144  0.6575  0.2626
 3165SOL    HW1 9630   0.926   4.213   1.725 -0.1018  1.3974  1.1445
 3165SOL    HW2 9631   0.801   4.297   1.716 -0.9170  0.0357 -0.8801
 3166SOL     OW 9632   5.001   0.362   1.490 -0.2032 -0.2420 -0.0261
 3166SOL    HW1 9633   4.979   0.344   1.581 -0.4085  1.1792  0.2372
 3166SOL    HW2 9634   5.016   0.457   1.488 -1.3712 -0.0487 -1.7101
 3167SOL     OW 9635   2.602   2.521   1.362 -0.4293 -0.5662 -0.1195
 3167SOL    HW1 9636   2.632   2.472   1.285  2.4250  1.8447 -0.7304
 3167SOL    HW2 9637   2.550   2.593   1.325 -0.8960 -0.6417  0.3849
 3168SOL     OW 9638   1.593   0.307   3.462 -0.0478 -0.1300  0.3754
 3168SOL    HW1 9639   1.639   0.369   3.405  0.2083 -1.0564 -0.4587
 3168SOL    HW2 9640   1.543   0.252   3.402 -1.1629 -0.0215  1.1781
 3169SOL     OW 9641   3.950   1.392   4.570  0.5872 -0.4363 -0.1186
 3169SOL    HW1 9642   3.897   1.408   4.648  0.7081  0.0653 -0.1412
 3169SOL    HW2 9643   3.913   1.448   4.502  2.5497  1.7274  0.4643
 3170SOL     OW 9644   2.067   3.829   1.693 -0.1726 -0.3449  0.1291
 3170SOL    HW1 9645   1.983   3.837   1.739  0.2508  0.3481  0.8057
 3170SOL    HW2 9646   2.121   3.775   1.750  0.1235 -0.0761  0.1088
 3171SOL     OW 9647   2.029   0.850   3.594 -0.2281 -0.3008  0.1011
 3171SOL    HW1 9648   2.023   0.903   3.673 -0.3776 -0.3670  0.1367
 3171SOL    HW2 9649   1.964   0.781   3.608 -0.1584 -0.3906 -0.0203
 3172SOL     OW 9650   2.299   2.992   4.303 -0.0455 -0.6261 -0.3302
 3172SOL    HW1 9651   2.340   3.027   4.382  0.7948 -1.7913 -0.2229
 3172SOL    HW2 9652   2.328   3.050   4.233  0.0678 -0.2119  0.0573
 3173SOL     OW 9653   1.687   0.967   3.354 -0.2867 -0.0433  0.7798
 3173SOL    HW1 9654   1.658   1.009   3.435 -3.2319 -0.5086  0.0786
 3173SOL    HW2 9655   1.627   0.893   3.342  1.9144 -1.7873 -0.3470
 3174SOL     OW 9656   3.984   1.046   4.034 -0.0730  0.7913  1.1162
 3174SOL    HW1 9657   3.911   0.984   4.040 -0.1342  0.6349 -0.7377
 3174SOL    HW2 9658   4.022   1.046   4.122  0.1347 -2.1406  1.1529
 3175SOL     OW 9659   1.861   2.284   2.275 -0.1492 -0.9044 -0.2043
 3175SOL    HW1 9660   1.789   2.330   2.233 -0.2330 -0.3768  0.4958
 3175SOL    HW2 9661   1.844   2.294   2.369  1.8489  0.9519  0.0477
 3176SOL     OW 9662   0.402   3.871   1.198 -0.1995  0.5416 -0.4592
 3176SOL    HW1 9663   0.489   3.897   1.227  0.1494  1.6760 -2.4049
 3176SOL    HW2 9664   0.343   3.906   1.265  0.7179  1.2150  0.0164
 3177SOL     OW 9665   0.124   3.669   2.404 -0.0488 -0.2384  0.0225
 3177SOL    HW1 9666   0.112   3.744   2.345  0.5683  0.7398  1.1049
 3177SOL    HW2 9667   0.166   3.603   2.350  2.2968  1.3258 -0.2012
 3178SOL     OW 9668   0.689   1.903   4.202  0.1595 -0.1644 -0.0682
 3178SOL    HW1 9669   0.665   1.995   4.208 -2.1504 -0.7912  1.6120
 3178SOL    HW2 9670   0.650   1.863   4.280  1.2808 -2.5487 -0.6356
 3179SOL     OW 9671   2.594   1.918   4.714  0.1369  0.6701  0.7743
 3179SOL    HW1 9672   2.672   1.882   4.756  0.2152  0.9128  0.8389
 3179SOL    HW2 9673   2.622   2.003   4.681  0.3102  0.1495 -0.4897
 3180SOL     OW 9674   1.696   0.670   3.034 -0.3503  0.8310 -0.3475
 3180SOL    HW1 9675   1.640   0.718   3.095  1.8402  1.8346  1.0134
 3180SOL    HW2 9676   1.736   0.738   2.980  1.7339  0.4816  0.6739
 3181SOL     OW 9677   3.091   3.917   0.323 -0.1443 -0.4723 -0.2695
 3181SOL    HW1 9678   3.068   3.999   0.279 -0.6343 -0.0409  0.7604
 3181SOL    HW2 9679   3.137   3.945   0.402 -0.3530 -1.1854  0.1078
 3182SOL     OW 9680   2.348   1.766   0.062 -0.4931  0.3869  0.1110
 3182SOL    HW1 9681   2.432   1.728   0.035 -1.1677 -2.4228  1.6378
 3182SOL    HW2 9682   2.282   1.713   0.017 -1.4730 -0.1343  2.0391
 3183SOL     OW 9683   2.388   2.813   0.844  0.2191  0.2562 -0.4946
 3183SOL    HW1 9684   2.377   2.730   0.892 -0.7761  1.4185  1.4269
 3183SOL    HW2 9685   2.349   2.796   0.758 -5.1841  0.1559  1.5486
 3184SOL     OW 9686   4.302   1.498   1.003  0.3486  0.1664 -0.1596
 3184SOL    HW1 9687   4.264   1.583   0.981 -0.9856 -0.1727  0.7017
 3184SOL    HW2 9688   4.345   1.512   1.088  0.4637  0.0665 -0.2006
 3185SOL     OW 9689   3.631   2.019   0.948  0.1065  0.1469  0.2879
 3185SOL    HW1 9690   3.606   1.927   0.944 -0.5410  0.3225  0.1932
 3185SOL    HW2 9691   3.604   2.055   0.864  0.9656  0.2813  0.0541
 3186SOL     OW 9692   3.627   2.476   1.432  0.0061 -0.5937 -0.2068
 3186SOL    HW1 9693   3.691   2.457   1.363  1.3636  0.7863  0.6122
 3186SOL    HW2 9694   3.673   2.456   1.513 -0.6390  0.3444  0.4059
 3187SOL     OW 9695   0.133   2.464   0.523  0.1685 -0.6656 -0.1147
 3187SOL    HW1 9696   0.227   2.468   0.537  0.0904  0.4382  0.1619
 3187SOL    HW2 9697   0.094   2.505   0.600 -0.4545  0.6421 -1.0920
 3188SOL     OW 9698   2.440   1.789   2.537 -0.0857 -0.0453  0.1572
 3188SOL    HW1 9699   2.404   1.706   2.504 -0.6154 -0.0984  0.8506
 3188SOL    HW2 9700   2.363   1.840   2.562  0.3001 -0.7428  3.1016
 3189SOL     OW 9701   4.554   4.418   3.505 -0.2022  0.0833  0.2136
 3189SOL    HW1 9702   4.635   4.419   3.454 -1.3051 -0.3985 -1.6454
 3189SOL    HW2 9703   4.492   4.467   3.451 -1.2469  0.1494  1.4497
 3190SOL     OW 9704   3.450   0.079   3.829 -0.0339 -0.2951  0.2806
 3190SOL    HW1 9705   3.437  -0.013   3.854 -1.3011 -0.0732  0.4897
 3190SOL    HW2 9706   3.416   0.084   3.740  0.8586 -0.2084 -0.0681
 3191SOL     OW 9707   3.868   1.409   2.038 -0.4568 -0.1221  0.2279
 3191SOL    HW1 9708   3.833   1.490   2.003  0.3086 -0.0641 -0.4625
 3191SOL    HW2 9709   3.851   1.344   1.969  3.4599  0.5288 -1.6845
 3192SOL     OW 9710   3.621   3.258   3.301 -0.3554  0.4143 -0.4359
 3192SOL    HW1 9711   3.613   3.175   3.255 -1.7749  1.0393 -1.3914
 3192SOL    HW2 9712   3.532   3.276   3.332 -0.1255  1.6885 -0.4713
 3193SOL     OW 9713   1.400   4.669   2.353  0.1932 -0.1120  0.0684
 3193SOL    HW1 9714   1.489   4.702   2.361  0.1179  0.2359 -0.5220
 3193SOL    HW2 9715   1.348   4.744   2.323  0.2049 -0.9531 -2.2551
 3194SOL     OW 9716   1.052   3.835   3.022  0.1858  0.1964 -0.4595
 3194SOL    HW1 9717   1.001   3.884   3.087  1.3026 -0.2565  0.7868
 3194SOL    HW2 9718   0.999   3.758   3.003 -0.5999  0.8171 -0.8295
 3195SOL     OW 9719   1.344   3.010   2.045 -0.3429  1.0795 -0.2276
 3195SOL    HW1 9720   1.394   3.044   2.119 -0.0071  3.5994 -1.5118
 3195SOL    HW2 9721   1.268   2.968   2.084  1.6398 -1.0547  1.6861
 3196SOL     OW 9722   2.407   0.770   0.577  0.5430  0.1581  0.4739
 3196SOL    HW1 9723   2.413   0.720   0.496  2.7393  0.3176  0.4702
 3196SOL    HW2 9724   2.326   0.820   0.569 -1.0524 -2.3432 -0.0969
 3197SOL     OW 9725   1.156   3.297   3.457  0.1633  0.4450  0.4045
 3197SOL    HW1 9726   1.210   3.225   3.424 -1.5842 -1.2776  1.1075
 3197SOL    HW2 9727   1.089   3.310   3.390 -0.4718  0.3227  1.0082
 3198SOL     OW 9728   1.576   2.910   0.589  0.5024  0.0008 -0.2884
 3198SOL    HW1 9729   1.520   2.927   0.513  0.8200 -0.1057 -0.5518
 3198SOL    HW2 9730   1.641   2.847   0.556 -1.0432 -2.3278  0.8024
 3199SOL     OW 9731   4.635   1.409   1.162  0.2220 -0.7734 -0.5406
 3199SOL    HW1 9732   4.605   1.489   1.206  0.4787 -0.3214 -1.1639
 3199SOL    HW2 9733   4.561   1.349   1.170 -0.1682 -0.2992 -0.4922
 3200SOL     OW 9734   1.112   1.469   1.777  0.2013 -0.2977  0.3614
 3200SOL    HW1 9735   1.068   1.395   1.736 -0.7523  0.2919  0.2653
 3200SOL    HW2 9736   1.159   1.512   1.705 -0.5775  0.1105  0.0830
 3201SOL     OW 9737   0.173   4.215   3.580 -0.4248  0.3429  0.7189
 3201SOL    HW1 9738   0.241   4.276   3.608 -1.2348  2.2602 -1.1873
 3201SOL    HW2 9739   0.220   4.141   3.543  0.5823  0.4139  1.7821
 3202SOL     OW 9740   2.019   3.142   2.794  0.7447  0.1408 -0.0218
 3202SOL    HW1 9741   2.016   3.093   2.877  0.5100  1.6173  0.8870
 3202SOL    HW2 9742   1.991   3.079   2.728 -1.0709 -0.5521  1.3071
 3203SOL     OW 9743   0.907   2.129   3.145  0.4259  0.0802 -0.1434
 3203SOL    HW1 9744   0.824   2.086   3.121  0.3105 -0.3628  0.9713
 3203SOL    HW2 9745   0.923   2.100   3.235  2.0562 -0.2352 -0.5115
 3204SOL     OW 9746   2.522   3.471   4.341  0.1318  0.0507 -0.1605
 3204SOL    HW1 9747   2.518   3.412   4.416 -0.9965 -2.0653 -1.7731
 3204SOL    HW2 9748   2.601   3.522   4.355  0.0010 -0.2986  2.4081
 3205SOL     OW 9749   0.693   3.748   4.757 -0.3872  0.2031 -0.6049
 3205SOL    HW1 9750   0.696   3.652   4.752 -1.3027 -0.5704  5.6583
 3205SOL    HW2 9751   0.782   3.773   4.782 -1.1056  0.3108  2.0738
 3206SOL     OW 9752   3.321   4.707   4.576 -0.0254 -0.4842 -0.2445
 3206SOL    HW1 9753   3.282   4.723   4.661  0.2221  0.9885 -0.3749
 3206SOL    HW2 9754   3.277   4.629   4.543  1.2378 -2.2992  2.0293
 3207SOL     OW 9755   2.298   0.562   4.385  0.5784 -0.4335 -0.1656
 3207SOL    HW1 9756   2.315   0.604   4.300 -0.5315  0.8961  0.2336
 3207SOL    HW2 9757   2.281   0.471   4.363 -0.6307  0.0744 -1.5072
 3208SOL     OW 9758   1.928   2.792   3.638 -0.2605 -0.0602  0.0681
 3208SOL    HW1 9759   1.875   2.784   3.558 -1.2665 -2.5433  0.9026
 3208SOL    HW2 9760   2.016   2.812   3.606 -1.1656  1.9099 -1.4633
 3209SOL     OW 9761   0.075   4.161   0.407  0.0047  0.3357  0.4600
 3209SOL    HW1 9762   0.008   4.227   0.426 -0.1536 -0.3383  2.4480
 3209SOL    HW2 9763   0.138   4.170   0.479  0.9886 -0.4130 -0.2839
 3210SOL     OW 9764   4.056   4.360   4.656  0.0635  0.8048 -0.3753
 3210SOL    HW1 9765   4.143   4.344   4.620 -0.2238 -0.5859 -0.5045
 3210SOL    HW2 9766   3.998   4.304   4.605 -1.0504  2.2594 -0.7998
 3211SOL     OW 9767   0.540   1.613   0.240 -0.6253 -0.4296  0.4497
 3211SOL    HW1 9768   0.517   1.681   0.303  1.7719  0.0563  0.8895
 3211SOL    HW2 9769   0.562   1.660   0.160  2.1257 -0.4899  1.0782
 3212SOL     OW 9770   2.776   1.668   4.299 -0.3566 -0.0346  0.1704
 3212SOL    HW1 9771   2.728   1.602   4.249 -0.6540  0.9407 -0.8597
 3212SOL    HW2 9772   2.808   1.729   4.233 -1.3959  1.7181  1.2252
 3213SOL     OW 9773   1.793   3.526   3.446 -0.2881  0.1923  0.5498
 3213SOL    HW1 9774   1.832   3.522   3.358 -1.3355  1.4568 -0.0092
 3213SOL    HW2 9775   1.838   3.457   3.495  0.8198 -0.0843 -0.7744
 3214SOL     OW 9776   1.253   2.027   3.738 -0.3478  0.5817 -0.2873
 3214SOL    HW1 9777   1.257   2.048   3.831 -0.8539  0.5069 -0.2437
 3214SOL    HW2 9778   1.159   2.018   3.719 -0.2298  0.1453 -0.7010
 3215SOL     OW 9779   2.952   4.176   1.440  0.8329 -0.2182 -0.0371
 3215SOL    HW1 9780   2.940   4.085   1.467  0.0923  0.0268  0.4998
 3215SOL    HW2 9781   2.941   4.227   1.520 -0.6439  0.4606 -0.6214
 3216SOL     OW 9782   3.623   3.674   1.254  0.6028 -0.4241  0.4796
 3216SOL    HW1 9783   3.632   3.581   1.276  0.3226 -1.3831 -2.8073
 3216SOL    HW2 9784   3.628   3.676   1.158  1.8260  3.1239  0.4603
 3217SOL     OW 9785   2.958   3.440   2.542 -0.1895 -0.2561  0.6188
 3217SOL    HW1 9786   2.988   3.349   2.551  0.9192  0.0509  0.2425
 3217SOL    HW2 9787   2.935   3.467   2.631  0.0497 -0.7205  0.8259
 3218SOL     OW 9788   0.239   1.163   2.781 -0.1102  0.2584  0.1185
 3218SOL    HW1 9789   0.322   1.134   2.744  0.0872 -2.3837  2.2929
 3218SOL    HW2 9790   0.172   1.119   2.729 -0.1094  1.1546 -0.6594
 3219SOL     OW 9791   0.330   2.551   0.887  0.6885  0.0895  0.1405
 3219SOL    HW1 9792   0.236   2.555   0.867  0.8727  0.2618 -0.7225
 3219SOL    HW2 9793   0.337   2.586   0.976 -0.2996 -1.8150  1.0242
 3220SOL     OW 9794   1.669   0.722   2.653  0.4336 -0.0037  0.6622
 3220SOL    HW1 9795   1.614   0.721   2.731  1.1753  2.1165  1.2834
 3220SOL    HW2 9796   1.608   0.712   2.580 -0.6876  1.2854  1.3870
 3221SOL     OW 9797   4.749   2.219   0.174  0.2963  0.3998 -0.0855
 3221SOL    HW1 9798   4.833   2.180   0.202  0.4473 -0.2313 -1.3332
 3221SOL    HW2 9799   4.692   2.143   0.159 -0.2850  0.7981  0.0839
 3222SOL     OW 9800   4.541   0.594   4.175  0.1608 -1.1085 -0.5469
 3222SOL    HW1 9801   4.513   0.685   4.164 -0.6340 -1.4195 -1.1784
 3222SOL    HW2 9802   4.483   0.558   4.241  3.0086 -0.1030  2.8303
 3223SOL     OW 9803   4.838   4.062   1.053  0.4343  0.1611  0.3631
 3223SOL    HW1 9804   4.819   4.156   1.050  0.5284  0.2183  1.1777
 3223SOL    HW2 9805   4.803   4.028   0.971 -0.5166  0.7446  0.5023
 3224SOL     OW 9806   1.668   1.185   1.751  0.2003 -0.0219  0.8551
 3224SOL    HW1 9807   1.691   1.123   1.681 -0.0134  1.3363 -0.4598
 3224SOL    HW2 9808   1.576   1.205   1.734  0.1168  0.2310  1.6165
 3225SOL     OW 9809   0.923   2.573   4.849 -0.0079  0.0849 -0.0952
 3225SOL    HW1 9810   1.003   2.532   4.882  0.1235  0.3518 -0.0797
 3225SOL    HW2 9811   0.860   2.563   4.921  0.6322  1.7545  0.7744
 3226SOL     OW 9812   2.879   4.917   0.122 -0.6897  0.0801 -0.1299
 3226SOL    HW1 9813   2.813   4.891   0.185  0.4838 -0.7787  0.7956
 3226SOL    HW2 9814   2.859   4.866   0.043 -0.7634 -0.6574  0.3563
 3227SOL     OW 9815   2.291   2.570   0.193 -0.2132  0.2355  0.1917
 3227SOL    HW1 9816   2.333   2.492   0.230  0.2674 -0.0900 -0.9969
 3227SOL    HW2 9817   2.353   2.603   0.128 -0.1752  1.9349  1.0283
 3228SOL     OW 9818   0.349   1.245   3.971 -0.0518  0.1092  0.5049
 3228SOL    HW1 9819   0.399   1.295   3.906  1.5546 -0.8869  0.8919
 3228SOL    HW2 9820   0.291   1.189   3.919  0.8388 -0.2983 -0.0921
 3229SOL     OW 9821   1.170   3.937   0.610 -0.1323  0.2840 -0.0265
 3229SOL    HW1 9822   1.195   3.975   0.526  0.3828  0.4692  0.2054
 3229SOL    HW2 9823   1.131   3.852   0.587  2.0522 -0.7083 -0.3432
 3230SOL     OW 9824   0.465   3.441   0.770  0.1205  0.0834 -0.8993
 3230SOL    HW1 9825   0.413   3.516   0.797 -0.3840 -0.5183 -0.1526
 3230SOL    HW2 9826   0.533   3.434   0.837 -0.6501 -0.9300 -0.1852
 3231SOL     OW 9827   3.937   0.348   1.138  0.3071 -0.7321 -0.4749
 3231SOL    HW1 9828   3.939   0.264   1.183 -0.5121  0.2015  1.4055
 3231SOL    HW2 9829   4.001   0.339   1.067  1.2666 -2.4419  0.5422
 3232SOL     OW 9830   0.586   4.033   4.693  0.0446  0.1732  0.3967
 3232SOL    HW1 9831   0.676   4.004   4.681  0.3958  0.5863  1.8281
 3232SOL    HW2 9832   0.580   4.115   4.642  0.4977  0.1806  0.3562
 3233SOL     OW 9833   4.875   2.024   2.612  0.2308  0.0651 -0.7464
 3233SOL    HW1 9834   4.824   1.978   2.678  1.6533  0.4388  0.6799
 3233SOL    HW2 9835   4.851   2.116   2.621  0.4753  0.1259 -0.7055
 3234SOL     OW 9836   3.276   4.625   0.253  0.2448  0.4866 -0.1039
 3234SOL    HW1 9837   3.320   4.709   0.262  2.5994 -0.8070  1.6812
 3234SOL    HW2 9838   3.292   4.581   0.337 -2.6007 -1.0060 -0.2474
 3235SOL     OW 9839   4.338   0.039   3.657 -0.6321  0.2708  0.0653
 3235SOL    HW1 9840   4.362  -0.006   3.737 -0.5694  0.8640  0.3844
 3235SOL    HW2 9841   4.242   0.045   3.660 -0.8110 -1.5806 -0.9291
 3236SOL     OW 9842   4.223   1.919   0.600 -0.6316  0.0281 -0.3477
 3236SOL    HW1 9843   4.186   1.881   0.680  0.5690  0.5732  0.5068
 3236SOL    HW2 9844   4.171   1.883   0.529 -1.5306 -0.7177  0.6675
 3237SOL     OW 9845   1.107   1.769   2.151 -0.2224  0.1083 -0.4762
 3237SOL    HW1 9846   1.123   1.825   2.075 -2.9119  0.7279 -0.6996
 3237SOL    HW2 9847   1.011   1.765   2.158 -0.0922 -2.1203  1.2942
 3238SOL     OW 9848   2.936   3.586   0.570 -0.6700  0.1265  0.1808
 3238SOL    HW1 9849   2.987   3.532   0.631 -1.8257  0.3045  1.3501
 3238SOL    HW2 9850   2.899   3.656   0.624 -0.6949  1.0434 -0.9767
 3239SOL     OW 9851   0.701   1.634   0.871  0.1861  0.4842 -0.6948
 3239SOL    HW1 9852   0.627   1.690   0.893  0.4885  0.4966  0.3387
 3239SOL    HW2 9853   0.742   1.677   0.795 -0.1107  1.1703 -0.4756
 3240SOL     OW 9854   3.873   1.414   0.364  0.0468  0.1151 -0.4010
 3240SOL    HW1 9855   3.904   1.371   0.445 -0.8990  0.7813  0.3414
 3240SOL    HW2 9856   3.891   1.507   0.378 -1.3246  0.3960 -0.3692
 3241SOL     OW 9857   4.821   0.722   2.861 -0.0368 -0.0225  0.6019
 3241SOL    HW1 9858   4.741   0.740   2.910  0.6181  1.8317  1.1047
 3241SOL    HW2 9859   4.885   0.784   2.897  0.5770  1.2244 -2.3592
 3242SOL     OW 9860   1.433   0.567   4.234  0.3079 -0.0880 -0.5760
 3242SOL    HW1 9861   1.479   0.649   4.218  1.8239 -0.9456 -0.7739
 3242SOL    HW2 9862   1.409   0.570   4.326 -2.9439  2.1390 -1.3158
 3243SOL     OW 9863   3.451   2.502   3.425 -0.0391 -0.3834  0.3073
 3243SOL    HW1 9864   3.361   2.475   3.412 -0.3912  0.3468  1.0986
 3243SOL    HW2 9865   3.471   2.477   3.515  0.1334  0.5229  0.5379
 3244SOL     OW 9866   3.989   2.086   5.033  0.3070 -0.4077  0.3809
 3244SOL    HW1 9867   3.925   2.032   5.080 -1.5853  1.5893  0.2792
 3244SOL    HW2 9868   3.972   2.068   4.940 -0.0682  0.0470  0.3566
 3245SOL     OW 9869   1.894   2.958   2.600  0.3910 -0.0234  0.1569
 3245SOL    HW1 9870   1.822   2.939   2.661  1.5660 -0.6767  1.3989
 3245SOL    HW2 9871   1.857   2.940   2.514 -1.0657  0.0715  0.7303
 3246SOL     OW 9872   4.977   0.170   0.622  0.2805 -0.4758  0.0275
 3246SOL    HW1 9873   5.048   0.219   0.580 -0.3095 -0.3800 -0.8781
 3246SOL    HW2 9874   4.981   0.196   0.714  1.4544 -0.5205  0.0082
 3247SOL     OW 9875   4.910   3.449   3.483 -0.0034 -0.2979  0.1565
 3247SOL    HW1 9876   4.872   3.478   3.566 -1.5285  0.6719 -0.8329
 3247SOL    HW2 9877   4.848   3.385   3.449  1.3878 -1.8582  0.4492
 3248SOL     OW 9878   3.484   4.354   3.776 -0.1858  0.2045  0.3355
 3248SOL    HW1 9879   3.389   4.346   3.769 -0.1159 -0.1427 -0.3968
 3248SOL    HW2 9880   3.504   4.440   3.740 -0.0345 -0.6778 -1.8808
 3249SOL     OW 9881   3.515   0.989   4.567 -0.3179 -0.1651  0.3357
 3249SOL    HW1 9882   3.437   0.955   4.609 -1.3989 -0.9559 -2.1185
 3249SOL    HW2 9883   3.506   1.084   4.573 -1.1153 -0.2558  0.6864
 3250SOL     OW 9884   3.390   0.207   2.837  0.7598  0.2671  0.5436
 3250SOL    HW1 9885   3.356   0.295   2.822  1.5205  0.2223 -1.8259
 3250SOL    HW2 9886   3.320   0.149   2.807  1.7001  0.1480 -1.5445
 3251SOL     OW 9887   3.564   0.578   3.591  0.1929  0.1655  0.5868
 3251SOL    HW1 9888   3.575   0.493   3.550  1.3571 -0.1900  1.5848
 3251SOL    HW2 9889   3.521   0.560   3.675  2.2503  0.2692  1.7318
 3252SOL     OW 9890   1.331   0.275   0.585 -0.2698 -0.0416 -0.0448
 3252SOL    HW1 9891   1.387   0.345   0.617 -0.5681  0.0373  0.3094
 3252SOL    HW2 9892   1.370   0.195   0.621  0.2885 -0.0929 -0.7600
 3253SOL     OW 9893   4.775   1.862   3.712  0.5714  0.4541 -0.1703
 3253SOL    HW1 9894   4.747   1.771   3.716 -1.6679  1.0705 -0.5164
 3253SOL    HW2 9895   4.786   1.880   3.619 -2.9658  1.5689 -0.4870
 3254SOL     OW 9896   3.263   3.632   1.882  0.4964 -0.4703  0.2644
 3254SOL    HW1 9897   3.318   3.555   1.866  0.2830 -0.6242  0.2637
 3254SOL    HW2 9898   3.300   3.672   1.961 -0.1694 -1.2982  1.0149
 3255SOL     OW 9899   1.294   3.845   3.160  0.1047 -0.1452  0.2390
 3255SOL    HW1 9900   1.216   3.813   3.115  0.2364 -0.1641  0.0216
 3255SOL    HW2 9901   1.271   3.844   3.252  0.3622 -1.5791  0.3077
 3256SOL     OW 9902   1.228   1.372   1.085  0.1977 -0.4836  0.1893
 3256SOL    HW1 9903   1.189   1.307   1.143 -1.1184  1.1237  1.1993
 3256SOL    HW2 9904   1.319   1.378   1.115 -0.8103  1.4524  3.3205
 3257SOL     OW 9905   1.090   1.753   3.518  0.2658  1.0283  0.9920
 3257SOL    HW1 9906   1.081   1.790   3.430 -0.3020  3.0558  1.8541
 3257SOL    HW2 9907   1.125   1.665   3.503 -1.9792  0.4181 -1.4109
 3258SOL     OW 9908   1.925   3.848   0.853 -0.3593  0.2208 -0.1019
 3258SOL    HW1 9909   1.962   3.854   0.941 -2.7963  2.2273  0.9288
 3258SOL    HW2 9910   1.994   3.809   0.800  0.8536 -2.0317  2.8582
 3259SOL     OW 9911   3.873   3.940   0.546 -0.1404  0.0153 -0.2855
 3259SOL    HW1 9912   3.950   3.886   0.561  1.2025  2.1914  1.4070
 3259SOL    HW2 9913   3.908   4.022   0.509 -1.9509  0.1894 -1.8004
 3260SOL     OW 9914   3.335   0.894   2.787 -0.4985  0.3341 -0.2417
 3260SOL    HW1 9915   3.418   0.864   2.749 -0.1879 -0.2647  0.8681
 3260SOL    HW2 9916   3.317   0.977   2.743  0.7814  0.5542 -0.3840
 3261SOL     OW 9917   4.256   3.608   2.551  0.3431  0.0178 -0.3699
 3261SOL    HW1 9918   4.281   3.691   2.510  0.5204 -0.4412 -1.2115
 3261SOL    HW2 9919   4.190   3.571   2.492  0.0607 -0.3093  0.1420
 3262SOL     OW 9920   1.598   2.023   3.875  0.1493  0.1588 -0.2041
 3262SOL    HW1 9921   1.581   2.029   3.781 -1.2018 -0.4778 -0.0147
 3262SOL    HW2 9922   1.609   1.929   3.891 -1.2958  0.0970  0.5357
 3263SOL     OW 9923   1.871   1.943   1.889 -0.2576 -0.2872 -0.2853
 3263SOL    HW1 9924   1.860   1.975   1.979 -1.6704  1.0411 -0.8891
 3263SOL    HW2 9925   1.958   1.902   1.889 -0.2487 -0.3597  1.6888
 3264SOL     OW 9926   5.006   1.490   2.336 -0.3617  0.1059 -0.2454
 3264SOL    HW1 9927   5.001   1.504   2.242  1.8585  1.4951 -0.2416
 3264SOL    HW2 9928   5.042   1.401   2.345 -1.7346 -0.5203 -0.6243
 3265SOL     OW 9929   2.749   2.274   2.341 -0.0334 -0.4018 -0.1660
 3265SOL    HW1 9930   2.717   2.228   2.263  0.3016  1.7839 -1.7104
 3265SOL    HW2 9931   2.802   2.210   2.387 -0.4296 -1.8464 -1.6256
 3266SOL     OW 9932   3.390   3.358   2.695  0.5493 -0.1235 -1.2118
 3266SOL    HW1 9933   3.411   3.385   2.785  3.3976 -1.5315 -1.3344
 3266SOL    HW2 9934   3.362   3.439   2.652 -4.6970  0.0426  1.6998
 3267SOL     OW 9935   1.603   1.533   4.086 -0.3959  0.5612  0.5808
 3267SOL    HW1 9936   1.532   1.469   4.072 -0.4203  0.6896  0.1104
 3267SOL    HW2 9937   1.647   1.502   4.165  1.7525 -2.0401 -1.4385
 3268SOL     OW 9938   4.269   0.810   0.366 -0.7208  0.6836 -0.6125
 3268SOL    HW1 9939   4.272   0.795   0.460 -1.4053  0.3017 -0.6464
 3268SOL    HW2 9940   4.283   0.723   0.328  1.4762  1.0964 -0.9129
 3269SOL     OW 9941   4.659   2.548   3.197  0.2295 -0.5168  0.6429
 3269SOL    HW1 9942   4.579   2.578   3.240  0.6087 -0.9529  1.7030
 3269SOL    HW2 9943   4.724   2.615   3.219 -0.0639  0.3764 -1.0796
 3270SOL     OW 9944   3.102   2.872   2.536  0.0748 -0.1004 -0.3043
 3270SOL    HW1 9945   3.078   2.794   2.486 -0.5816  0.2160 -0.5019
 3270SOL    HW2 9946   3.109   2.941   2.470 -0.5378  0.2644  0.0060
 3271SOL     OW 9947   1.590   0.243   0.887  0.2470 -0.7837 -0.3539
 3271SOL    HW1 9948   1.548   0.316   0.840 -1.2762 -1.5913 -0.3217
 3271SOL    HW2 9949   1.535   0.230   0.964  1.7087 -0.6323  0.7390
 3272SOL     OW 9950   2.631   0.792   1.561 -0.3291 -0.7849  0.3650
 3272SOL    HW1 9951   2.537   0.806   1.556 -1.4139 -6.0967 -0.0207
 3272SOL    HW2 9952   2.660   0.793   1.469 -0.6662 -2.1323  0.2308
 3273SOL     OW 9953   2.035   3.526   1.688 -0.0371  0.4117 -0.2058
 3273SOL    HW1 9954   2.014   3.612   1.652  0.7417  0.2281 -1.1392
 3273SOL    HW2 9955   2.044   3.541   1.782 -0.6832  1.1911 -0.2612
 3274SOL     OW 9956   4.376   1.669   2.942 -0.3264  0.0971  0.3016
 3274SOL    HW1 9957   4.371   1.574   2.939 -1.1771  0.1380  0.2162
 3274SOL    HW2 9958   4.389   1.689   3.035  0.0487 -0.1032  0.2947
 3275SOL     OW 9959   3.914   0.344   2.523 -0.1901  0.0479 -0.1454
 3275SOL    HW1 9960   3.849   0.321   2.457  0.2679 -0.4987 -0.4158
 3275SOL    HW2 9961   3.956   0.261   2.546  2.0050  0.6264 -1.6605
 3276SOL     OW 9962   4.860   4.693   4.006  0.3227  0.2621  0.3862
 3276SOL    HW1 9963   4.797   4.681   4.077 -0.5873 -0.1063 -0.4774
 3276SOL    HW2 9964   4.807   4.708   3.928  1.2930 -0.0740 -0.3620
 3277SOL     OW 9965   3.063   2.767   0.207 -0.3363 -0.1007 -0.2708
 3277SOL    HW1 9966   3.035   2.726   0.289 -1.3651  0.9372 -0.0611
 3277SOL    HW2 9967   3.117   2.702   0.164  1.8778 -0.0323  2.1080
 3278SOL     OW 9968   4.409   2.669   4.224  0.0756  0.4572 -0.3062
 3278SOL    HW1 9969   4.370   2.584   4.201 -1.8962  0.8155  1.4435
 3278SOL    HW2 9970   4.338   2.732   4.212  1.5101  1.9255 -1.5702
 3279SOL     OW 9971   0.394   1.564   2.674  0.6199  0.2792  0.3640
 3279SOL    HW1 9972   0.448   1.526   2.743  0.2988  0.8987  0.9685
 3279SOL    HW2 9973   0.384   1.494   2.610  1.9333  0.0770  0.3480
 3280SOL     OW 9974   0.758   1.726   4.004 -0.4014  0.1352 -0.5090
 3280SOL    HW1 9975   0.702   1.651   4.025 -0.1053 -0.3117 -1.2638
 3280SOL    HW2 9976   0.744   1.788   4.076  0.8539 -1.4664  1.1976
 3281SOL     OW 9977   2.697   0.521   1.600  0.2313 -0.1198 -0.2410
 3281SOL    HW1 9978   2.609   0.496   1.629 -0.2759 -1.7228 -2.7773
 3281SOL    HW2 9979   2.692   0.615   1.584 -1.2560 -0.2882 -0.9418
 3282SOL     OW 9980   3.920   0.233   3.629 -0.1923  0.3020 -0.6041
 3282SOL    HW1 9981   3.871   0.174   3.686  0.5812  1.5572  1.4848
 3282SOL    HW2 9982   4.000   0.252   3.678  0.1515  2.0547 -1.7549
 3283SOL     OW 9983   3.658   4.943   2.571  0.1040 -0.3021 -0.0921
 3283SOL    HW1 9984   3.568   4.915   2.551  0.7067 -2.2337 -0.3268
 3283SOL    HW2 9985   3.648   5.031   2.607 -1.7854 -0.0433 -1.0992
 3284SOL     OW 9986   3.246   2.449   3.008 -0.6490 -0.3870 -0.0088
 3284SOL    HW1 9987   3.291   2.526   3.043  0.1442 -0.9966  0.3472
 3284SOL    HW2 9988   3.209   2.479   2.925  0.4143  0.1569 -0.3118
 3285SOL     OW 9989   0.277   2.105   2.705  0.0426  0.9569  0.1653
 3285SOL    HW1 9990   0.322   2.021   2.690 -0.8527  0.1259  1.8093
 3285SOL    HW2 9991   0.338   2.171   2.672  1.9835 -0.1951  1.2227
 3286SOL     OW 9992   0.858   2.304   1.316  0.5325 -0.1264  0.7136
 3286SOL    HW1 9993   0.904   2.384   1.291 -0.9135  0.8551  1.0468
 3286SOL    HW2 9994   0.902   2.235   1.266  2.7752  0.6174  1.5429
 3287SOL     OW 9995   1.530   0.758   0.210  0.3080 -0.5960 -0.5205
 3287SOL    HW1 9996   1.509   0.792   0.296  3.4217  0.4976 -0.0631
 3287SOL    HW2 9997   1.595   0.689   0.226  0.1416 -1.1218 -1.9302
 3288SOL     OW 9998   2.368   4.953   1.036 -0.2274  0.0893 -0.2924
 3288SOL    HW1 9999   2.411   4.872   1.006  0.2917 -0.8423  2.6457
 3288SOL    HW210000   2.435   4.998   1.086 -2.0569 -0.6214  3.0785
 3289SOL     OW10001   0.803   3.504   1.270  0.7019  0.1645  0.4987
 3289SOL    HW110002   0.879   3.474   1.221 -0.4500  1.3831 -2.2505
 3289SOL    HW210003   0.731   3.501   1.207 -0.6489  3.0316  1.7296
 3290SOL     OW10004   3.059   2.567   0.958 -0.5354 -0.0147 -0.0106
 3290SOL    HW110005   3.112   2.586   1.036 -0.5032  0.0023 -0.0367
 3290SOL    HW210006   3.099   2.487   0.922 -0.2483  0.2503 -0.2830
 3291SOL     OW10007   3.623   4.581   0.146 -0.1261 -0.2693  0.3987
 3291SOL    HW110008   3.594   4.660   0.101 -0.9039 -0.7777 -0.0025
 3291SOL    HW210009   3.630   4.607   0.238  0.5044  0.5003  0.1504
 3292SOL     OW10010   2.756   4.193   0.772 -0.0350 -0.0662  0.4327
 3292SOL    HW110011   2.797   4.279   0.779 -0.0487 -0.0954  0.9175
 3292SOL    HW210012   2.800   4.152   0.697  1.5587 -0.4843  1.5310
 3293SOL     OW10013   4.288   2.290   1.275 -0.1330 -0.0468  0.4922
 3293SOL    HW110014   4.193   2.296   1.274 -0.0854  1.1385  1.2416
 3293SOL    HW210015   4.306   2.203   1.312 -0.8804 -1.6261 -2.4987
 3294SOL     OW10016   4.610   4.288   1.302  0.0253  0.6569 -0.8246
 3294SOL    HW110017   4.517   4.308   1.311 -0.2437  0.1353 -2.2591
 3294SOL    HW210018   4.613   4.192   1.296  0.7009  0.6450 -0.4086
 3295SOL     OW10019   4.456   4.914   1.082 -0.7641  0.1818  0.0894
 3295SOL    HW110020   4.511   4.963   1.143 -1.9614  1.8679 -0.1189
 3295SOL    HW210021   4.486   4.824   1.090  2.2515  1.0489 -0.2746
 3296SOL     OW10022   3.734   2.949   3.232  0.2931 -0.3617 -0.4103
 3296SOL    HW110023   3.791   2.875   3.251  0.5750 -0.0056  0.1730
 3296SOL    HW210024   3.651   2.926   3.273  0.0360 -0.8307 -1.1655
 3297SOL     OW10025   1.720   3.070   4.639  0.1374 -0.6690 -0.8258
 3297SOL    HW110026   1.693   3.137   4.702 -0.1895 -1.9195  0.3897
 3297SOL    HW210027   1.805   3.100   4.607  1.2088 -0.9554  1.6165
 3298SOL     OW10028   2.246   4.073   4.187 -0.4036  0.9866 -0.3463
 3298SOL    HW110029   2.299   4.091   4.109 -1.9210 -0.4791 -1.7772
 3298SOL    HW210030   2.264   3.982   4.209 -1.9781  0.5779 -0.6143
 3299SOL     OW10031   0.203   3.737   3.110 -0.2329  0.1925 -0.1661
 3299SOL    HW110032   0.122   3.757   3.063 -0.2146 -0.4926 -0.5034
 3299SOL    HW210033   0.263   3.707   3.042  0.9101  2.3252 -0.2071
 3300SOL     OW10034   3.619   4.987   0.480  0.3410 -0.0029  0.4051
 3300SOL    HW110035   3.676   4.933   0.425 -1.2850 -2.4382  0.9189
 3300SOL    HW210036   3.591   4.928   0.550 -2.9522  0.9561  0.0456
 3301SOL     OW10037   0.490   2.386   4.845 -0.0302 -0.3231  0.2184
 3301SOL    HW110038   0.484   2.478   4.817  1.4552 -0.2646 -0.0177
 3301SOL    HW210039   0.495   2.336   4.764 -1.0919 -0.6541  0.3428
 3302SOL     OW10040   3.100   2.537   2.762 -0.3425 -0.0363  0.2804
 3302SOL    HW110041   3.069   2.541   2.672  1.1179  1.9723 -0.1972
 3302SOL    HW210042   3.075   2.450   2.792 -5.3043  0.9121 -0.3530
 3303SOL     OW10043   0.380   0.823   2.596  0.0784 -0.0486  0.5681
 3303SOL    HW110044   0.417   0.886   2.658 -1.5372  1.4584  0.1129
 3303SOL    HW210045   0.450   0.806   2.534  0.4246  1.8190  0.3677
 3304SOL     OW10046   3.976   0.306   1.548  0.1816  0.4867 -1.0103
 3304SOL    HW110047   4.037   0.301   1.474  2.6484  1.5918  0.7911
 3304SOL    HW210048   4.004   0.235   1.606 -1.5831 -0.2292 -0.9704
 3305SOL     OW10049   3.305   2.759   2.726 -0.6099  0.3876  0.5992
 3305SOL    HW110050   3.212   2.753   2.751 -0.5270  1.1342  1.1012
 3305SOL    HW210051   3.303   2.769   2.631 -0.9249 -2.7050  0.1490
 3306SOL     OW10052   0.821   1.915   1.037  0.2241  0.1108 -0.0524
 3306SOL    HW110053   0.787   1.915   0.948  1.3447 -2.3811 -0.5828
 3306SOL    HW210054   0.851   2.004   1.052  0.8642  0.3719 -2.5541
 3307SOL     OW10055   4.210   4.718   3.092  0.0866  0.2838 -0.0528
 3307SOL    HW110056   4.242   4.745   3.006 -1.4943  0.4591 -0.6106
 3307SOL    HW210057   4.173   4.631   3.078  1.3540 -0.4423  0.8455
 3308SOL     OW10058   2.435   2.788   1.871  0.1169  0.0053 -0.6403
 3308SOL    HW110059   2.357   2.810   1.922  0.2112 -1.0458 -0.0178
 3308SOL    HW210060   2.435   2.851   1.799 -0.9244  0.4590 -0.2630
 3309SOL     OW10061   5.007   0.621   2.677  0.9852  0.2251 -0.7728
 3309SOL    HW110062   4.939   0.643   2.741  3.3696  1.0741  1.6995
 3309SOL    HW210063   4.960   0.598   2.598 -2.1123  2.2229  0.3108
 3310SOL     OW10064   4.361   1.054   2.748 -0.0598 -0.0517 -0.3790
 3310SOL    HW110065   4.325   1.012   2.827 -2.4052  0.4736 -1.0916
 3310SOL    HW210066   4.455   1.050   2.760 -0.3178 -1.3060  1.7716
 3311SOL     OW10067   2.610   0.498   1.086  0.0728 -0.4290 -0.1589
 3311SOL    HW110068   2.531   0.448   1.063 -1.1699  1.7712 -1.0199
 3311SOL    HW210069   2.636   0.541   1.004 -1.6190  3.8071  1.2209
 3312SOL     OW10070   0.021   2.829   0.079  0.4523  0.5489  0.5263
 3312SOL    HW110071   0.026   2.854   0.171  1.1549  1.6438  0.2025
 3312SOL    HW210072   0.068   2.898   0.032  1.5828 -0.8627 -0.5099
 3313SOL     OW10073   0.008   4.643   0.585 -0.1330 -0.0041 -0.0637
 3313SOL    HW110074   0.025   4.732   0.554 -2.2991  0.4171 -0.2242
 3313SOL    HW210075  -0.005   4.592   0.504 -2.5423  0.3958 -0.0192
 3314SOL     OW10076   2.870   1.859   2.581  0.2822  0.3119  0.0256
 3314SOL    HW110077   2.798   1.922   2.586 -1.4931 -1.4991 -1.1218
 3314SOL    HW210078   2.827   1.774   2.587  2.0078 -0.9388 -3.1782
 3315SOL     OW10079   0.890   0.488   0.783 -0.2786  0.4692 -0.7416
 3315SOL    HW110080   0.838   0.499   0.704  1.3394  2.8881 -1.5763
 3315SOL    HW210081   0.977   0.462   0.752 -0.1949 -0.7967  0.4371
 3316SOL     OW10082   2.051   4.236   4.248  0.1714  0.0124 -0.0953
 3316SOL    HW110083   2.136   4.198   4.226  0.3060  0.5886 -0.6083
 3316SOL    HW210084   2.071   4.326   4.272 -0.4622  0.7038 -1.9491
 3317SOL     OW10085   2.633   3.603   4.976  0.3517 -0.2439 -0.6935
 3317SOL    HW110086   2.613   3.675   4.915  1.3445  0.2339 -0.4693
 3317SOL    HW210087   2.551   3.590   5.025  0.7194  2.1381  0.6984
 3318SOL     OW10088   1.524   1.953   1.807 -0.6137  0.1644  0.7205
 3318SOL    HW110089   1.472   1.939   1.728 -1.0594  0.4923  0.9519
 3318SOL    HW210090   1.577   1.874   1.815  0.4500  0.7070 -0.6581
 3319SOL     OW10091   3.820   0.326   3.917 -0.2486  0.2025  0.3268
 3319SOL    HW110092   3.890   0.262   3.921  0.3276  0.8453  3.2602
 3319SOL    HW210093   3.861   0.405   3.883 -0.3195 -0.2290 -0.7936
 3320SOL     OW10094   3.847   2.074   3.129  0.5331  0.2284  0.2134
 3320SOL    HW110095   3.752   2.062   3.130  0.5055  0.5022  0.8929
 3320SOL    HW210096   3.863   2.129   3.052  0.2848 -0.9112 -0.6834
 3321SOL     OW10097   0.510   2.105   2.418 -0.2430  0.5156 -0.2902
 3321SOL    HW110098   0.533   2.133   2.507  5.0417 -2.0929 -0.4118
 3321SOL    HW210099   0.513   2.185   2.367 -1.5691  1.8261  1.5506
 3322SOL     OW10100   0.496   4.393   0.150 -0.7770 -0.3901 -0.1039
 3322SOL    HW110101   0.436   4.351   0.089  0.6735 -2.4123 -0.2436
 3322SOL    HW210102   0.479   4.350   0.234 -0.9699  0.5295  0.3381
 3323SOL     OW10103   2.546   3.688   0.282  0.3244  0.6584  0.1012
 3323SOL    HW110104   2.527   3.754   0.348 -0.3478 -1.2564  1.9492
 3323SOL    HW210105   2.641   3.679   0.283  0.4781  1.9371 -0.5863
 3324SOL     OW10106   3.468   1.232   0.114 -0.3654  0.0428 -0.0002
 3324SOL    HW110107   3.415   1.215   0.192 -0.1507 -0.6309  0.0067
 3324SOL    HW210108   3.558   1.236   0.147 -0.2084 -0.8718 -0.2944
 3325SOL     OW10109   2.670   2.855   4.924  0.5481  0.0055  0.6929
 3325SOL    HW110110   2.741   2.870   4.862 -1.5257 -0.3014 -1.9568
 3325SOL    HW210111   2.637   2.942   4.945 -0.7461  0.0229 -1.2339
 3326SOL     OW10112   4.639   3.433   5.030 -0.5326  0.0573 -0.2566
 3326SOL    HW110113   4.697   3.486   4.976 -1.0517 -0.8302 -1.7276
 3326SOL    HW210114   4.628   3.351   4.981 -2.5269 -0.0414  0.2672
 3327SOL     OW10115   3.543   2.894   1.119  0.4613 -0.0526  0.2836
 3327SOL    HW110116   3.458   2.905   1.076  0.8694  0.9389 -0.2971
 3327SOL    HW210117   3.527   2.829   1.188 -1.2601  1.5953  1.5241
 3328SOL     OW10118   3.124   1.233   2.394 -0.0185  0.0451  0.1503
 3328SOL    HW110119   3.096   1.193   2.476 -0.5524  0.5840  0.2377
 3328SOL    HW210120   3.132   1.159   2.333  0.0311 -0.3132  0.5869
 3329SOL     OW10121   0.573   2.194   2.662  0.2196  0.2461  0.1408
 3329SOL    HW110122   0.540   2.284   2.672 -0.2407  0.4070 -2.2446
 3329SOL    HW210123   0.651   2.191   2.718 -0.9213  1.4507  1.8979
 3330SOL     OW10124   4.700   0.465   0.441  0.0329  0.2178 -0.1809
 3330SOL    HW110125   4.720   0.434   0.530 -1.0789  0.1443  0.0571
 3330SOL    HW210126   4.637   0.401   0.407 -1.8633  1.8607  0.0939
 3331SOL     OW10127   0.185   0.062   4.487  0.0703 -0.0408 -0.5999
 3331SOL    HW110128   0.213   0.048   4.396  0.6421 -0.0053 -0.4343
 3331SOL    HW210129   0.267   0.078   4.534  0.0167 -2.1359  0.3038
 3332SOL     OW10130   4.890   1.419   3.696 -0.8162 -0.4052  0.2110
 3332SOL    HW110131   4.905   1.493   3.754  2.7751 -0.3812 -0.5414
 3332SOL    HW210132   4.851   1.457   3.617 -1.5426  0.2168  0.8544
 3333SOL     OW10133   3.968   0.091   3.949 -0.0169  0.2062 -0.0370
 3333SOL    HW110134   3.990   0.041   3.871 -0.2025  1.8909 -1.2446
 3333SOL    HW210135   4.048   0.092   4.001  0.1177 -0.9236 -0.2117
 3334SOL     OW10136   3.519   1.959   1.677 -0.6572  0.0660 -0.0210
 3334SOL    HW110137   3.489   1.898   1.744 -2.2465 -0.3523 -1.0730
 3334SOL    HW210138   3.590   1.914   1.632 -0.1104  0.0402  0.8408
 3335SOL     OW10139   3.948   3.973   4.781  0.8190  0.2957  0.3595
 3335SOL    HW110140   3.891   3.991   4.706  1.2402 -0.8168 -0.2510
 3335SOL    HW210141   4.037   3.987   4.747  0.9976  0.2929  0.8109
 3336SOL     OW10142   0.562   1.127   2.466  0.3736  0.3763 -0.6050
 3336SOL    HW110143   0.615   1.068   2.520 -1.4926  0.0292  0.9777
 3336SOL    HW210144   0.584   1.215   2.498  1.5989  0.4176 -1.5064
 3337SOL     OW10145   0.273   0.633   1.022 -0.1436  0.6757  0.2235
 3337SOL    HW110146   0.252   0.701   0.958 -1.8605 -0.0889 -0.0925
 3337SOL    HW210147   0.217   0.653   1.097  1.3360  1.1535  1.2333
 3338SOL     OW10148   0.535   0.993   3.870 -0.5163 -0.7686 -0.3222
 3338SOL    HW110149   0.540   1.050   3.946 -1.4716  0.0532 -0.8471
 3338SOL    HW210150   0.530   0.904   3.907  0.6185 -0.5070  0.5072
 3339SOL     OW10151   0.740   1.955   1.358 -0.2195 -0.7610 -0.1361
 3339SOL    HW110152   0.716   2.048   1.354  0.1138 -0.4810  2.3954
 3339SOL    HW210153   0.748   1.928   1.267 -0.1431  1.7418 -0.9420
 3340SOL     OW10154   0.673   2.550   1.586 -0.2423  0.7909  0.6174
 3340SOL    HW110155   0.649   2.643   1.582 -2.1232  0.3374  0.0770
 3340SOL    HW210156   0.634   2.519   1.667  0.5226  0.5090  0.8742
 3341SOL     OW10157   3.683   3.153   2.738  0.0357  0.0846  0.6066
 3341SOL    HW110158   3.658   3.241   2.766  2.1144  1.2774 -0.9608
 3341SOL    HW210159   3.704   3.106   2.819 -0.0842  1.3757  1.4041
 3342SOL     OW10160   1.105   3.333   0.737  0.0007 -0.6891 -0.0867
 3342SOL    HW110161   1.160   3.261   0.768  1.5635  0.9054  1.0011
 3342SOL    HW210162   1.142   3.411   0.779 -1.1966  0.8516 -1.7814
 3343SOL     OW10163   3.296   3.123   1.805 -0.3240  0.1568  0.5770
 3343SOL    HW110164   3.206   3.108   1.775 -0.4493  0.4243  0.8117
 3343SOL    HW210165   3.349   3.120   1.725 -0.7730  1.8594  0.1621
 3344SOL     OW10166   1.132   0.045   3.858  0.2417  0.2552  0.8456
 3344SOL    HW110167   1.123   0.136   3.827 -0.8670  0.2417  1.0942
 3344SOL    HW210168   1.205   0.010   3.807 -0.0060  0.9640 -0.0329
 3345SOL     OW10169   1.502   1.442   2.686  0.0428  0.5605 -0.0859
 3345SOL    HW110170   1.504   1.471   2.778 -1.2407  1.6887 -0.3839
 3345SOL    HW210171   1.477   1.350   2.691 -1.2405  0.9188  0.6664
 3346SOL     OW10172   0.173   3.247   4.238 -0.0821  0.1018 -0.1763
 3346SOL    HW110173   0.167   3.312   4.168 -2.1623 -1.0165 -1.1705
 3346SOL    HW210174   0.094   3.261   4.290  0.3434 -0.4837  0.6501
 3347SOL     OW10175   2.304   0.221   2.307 -0.5223 -0.6831  0.2012
 3347SOL    HW110176   2.391   0.206   2.344 -0.3964 -0.6692 -0.0899
 3347SOL    HW210177   2.310   0.190   2.217 -0.5432  0.1970 -0.1137
 3348SOL     OW10178   3.350   3.669   1.300  0.1764 -0.1115 -0.0538
 3348SOL    HW110179   3.316   3.691   1.213  0.5373 -2.7150 -0.9285
 3348SOL    HW210180   3.444   3.687   1.294  0.5565 -2.1303 -0.9279
 3349SOL     OW10181   4.066   3.375   0.619  0.2083 -0.1592  0.3570
 3349SOL    HW110182   4.137   3.313   0.638  0.3258 -0.6709 -1.5160
 3349SOL    HW210183   4.110   3.452   0.584 -0.1193 -0.6469 -1.2403
 3350SOL     OW10184   0.391   4.547   1.602 -0.3671 -0.7536 -0.3485
 3350SOL    HW110185   0.326   4.576   1.538  1.6196  3.2781 -0.8715
 3350SOL    HW210186   0.341   4.532   1.682 -2.3530 -1.4510 -1.6569
 3351SOL     OW10187   2.620   4.157   0.371  0.0760 -0.4216 -0.7637
 3351SOL    HW110188   2.533   4.146   0.409 -1.5449 -0.6171 -4.1657
 3351SOL    HW210189   2.680   4.126   0.439 -2.4875 -0.6647  1.5573
 3352SOL     OW10190   2.491   3.330   0.533  0.0124 -0.3813  0.9632
 3352SOL    HW110191   2.433   3.255   0.519  0.5013 -0.9745  2.0515
 3352SOL    HW210192   2.554   3.325   0.462  0.3638 -1.3199  1.3382
 3353SOL     OW10193   0.395   3.805   4.630  0.0316 -0.6448 -0.1813
 3353SOL    HW110194   0.483   3.775   4.655  0.5159 -0.6151 -1.7103
 3353SOL    HW210195   0.396   3.899   4.648 -0.5005 -0.9954  1.9267
 3354SOL     OW10196   1.103   3.502   1.767 -0.2289  0.7787  0.1200
 3354SOL    HW110197   1.052   3.494   1.686 -1.7457  1.2691  0.9891
 3354SOL    HW210198   1.080   3.588   1.801 -0.4086  0.1689  1.5990
 3355SOL     OW10199   4.320   2.204   2.104  0.0140 -1.1381 -0.5071
 3355SOL    HW110200   4.229   2.181   2.083  0.2559 -0.9990 -1.8122
 3355SOL    HW210201   4.354   2.127   2.149 -1.2701 -0.4904  1.7235
 3356SOL     OW10202   1.904   1.042   1.559 -0.0010 -0.5218 -0.4613
 3356SOL    HW110203   1.811   1.046   1.537 -0.2828 -0.7679  0.6249
 3356SOL    HW210204   1.943   1.116   1.512 -0.7626 -0.3498 -0.8352
 3357SOL     OW10205   1.361   1.326   3.182 -1.1138 -0.1590  0.3408
 3357SOL    HW110206   1.307   1.389   3.134 -0.2224  0.9430  0.7184
 3357SOL    HW210207   1.328   1.240   3.156 -1.0396  0.4095 -1.7931
 3358SOL     OW10208   1.076   0.412   1.337  0.0954 -0.1366  0.2697
 3358SOL    HW110209   1.003   0.408   1.399 -0.0600  0.5813  0.1454
 3358SOL    HW210210   1.036   0.438   1.254  0.3325 -0.8929 -0.0917
 3359SOL     OW10211   0.440   1.032   1.513 -0.0257  0.0204 -0.2550
 3359SOL    HW110212   0.465   1.016   1.605  1.3280  0.7889 -0.4505
 3359SOL    HW210213   0.442   0.946   1.472  0.2097 -0.2239  0.2602
 3360SOL     OW10214   4.641   1.172   0.924  0.6902 -0.7414  0.1576
 3360SOL    HW110215   4.591   1.178   1.005  1.7837 -2.4074  1.0221
 3360SOL    HW210216   4.606   1.242   0.869 -1.6463 -1.0229  1.1829
 3361SOL     OW10217   4.600  -0.008   4.243 -0.2091 -0.2079 -0.0832
 3361SOL    HW110218   4.606  -0.023   4.149 -2.2733  1.0399 -0.4532
 3361SOL    HW210219   4.586   0.086   4.252 -0.6550 -0.3944  1.4412
 3362SOL     OW10220   1.069   4.957   1.911  0.4370 -0.1862 -0.4029
 3362SOL    HW110221   1.119   4.883   1.946  2.0083 -0.2297 -2.5687
 3362SOL    HW210222   1.119   5.034   1.938  0.5548 -0.1012 -0.8679
 3363SOL     OW10223   4.871   2.819   2.656  0.4299 -0.4406  0.3824
 3363SOL    HW110224   4.817   2.794   2.730 -0.4207 -3.1123 -0.9859
 3363SOL    HW210225   4.811   2.821   2.581  1.7345 -0.7871 -0.7318
 3364SOL     OW10226   3.131   4.032   0.571 -1.2704 -0.0084 -0.5310
 3364SOL    HW110227   3.139   4.006   0.663 -0.5541 -0.5556 -0.7382
 3364SOL    HW210228   3.181   4.113   0.565 -1.9339  0.4248 -0.2857
 3365SOL     OW10229   4.932   0.871   3.813  0.0617  0.2352 -0.1230
 3365SOL    HW110230   4.868   0.825   3.759  1.1487  0.1776 -1.3925
 3365SOL    HW210231   5.008   0.881   3.757  0.4343  2.1774  0.6524
 3366SOL     OW10232   1.241   4.203   0.767 -0.2723  0.0672  0.5169
 3366SOL    HW110233   1.287   4.123   0.790 -1.1454 -0.4239  0.6052
 3366SOL    HW210234   1.181   4.219   0.840 -0.8523  0.2127  0.0239
 3367SOL     OW10235   3.787   1.414   4.773  0.3819  0.2295  0.4086
 3367SOL    HW110236   3.712   1.473   4.783 -1.4415 -1.9399  0.3592
 3367SOL    HW210237   3.812   1.392   4.863 -1.1662 -1.4701  0.4929
 3368SOL     OW10238   2.406   2.462   3.553  0.0231 -0.1815  0.2876
 3368SOL    HW110239   2.475   2.397   3.543 -1.3796 -1.6086 -0.4702
 3368SOL    HW210240   2.450   2.538   3.593  1.4832 -1.9697  2.2839
 3369SOL     OW10241   3.002   4.920   3.305 -0.2024  0.1415  0.0052
 3369SOL    HW110242   3.036   4.971   3.378  0.2416 -1.9295  1.3283
 3369SOL    HW210243   3.064   4.935   3.234  1.0335 -0.0983  0.9942
 3370SOL     OW10244   2.580   1.572   4.517 -0.2061  0.4231  0.2164
 3370SOL    HW110245   2.588   1.550   4.424 -0.3055  2.2155 -0.2403
 3370SOL    HW210246   2.653   1.632   4.534  0.1761 -0.3504  1.4670
 3371SOL     OW10247   4.286   3.075   1.652  0.3464 -0.0475 -0.2340
 3371SOL    HW110248   4.207   3.115   1.614  1.3934  3.1582  0.6420
 3371SOL    HW210249   4.348   3.072   1.579  0.5254  0.7902 -0.1300
 3372SOL     OW10250   2.669   2.025   0.852 -0.1526  0.3251  0.2006
 3372SOL    HW110251   2.631   1.955   0.906 -2.7943  2.5595  1.5719
 3372SOL    HW210252   2.728   2.072   0.912  1.4900 -0.5652 -0.6635
 3373SOL     OW10253   1.470   2.015   2.832 -0.2412 -0.8048  0.5346
 3373SOL    HW110254   1.505   2.060   2.755 -2.1990  2.0633  1.1276
 3373SOL    HW210255   1.390   1.972   2.800  0.1012 -1.4459  0.5393
 3374SOL     OW10256   4.629   3.985   2.842  0.5070 -0.1668 -0.0655
 3374SOL    HW110257   4.594   4.061   2.887  1.8936  0.1740  0.4933
 3374SOL    HW210258   4.688   4.022   2.776  1.1402 -0.7403  0.1678
 3375SOL     OW10259   2.435   2.384   1.619  0.0427 -0.0660  0.2783
 3375SOL    HW110260   2.482   2.458   1.580 -1.9508  1.2061  0.1718
 3375SOL    HW210261   2.428   2.406   1.712  0.3414 -0.6418  0.4430
 3376SOL     OW10262   1.593   3.269   2.788  0.1859 -0.1996 -0.2183
 3376SOL    HW110263   1.620   3.328   2.859 -1.6562 -0.3135  0.6591
 3376SOL    HW210264   1.630   3.308   2.709  1.1678  0.6928  0.6458
 3377SOL     OW10265   1.273   4.699   4.359 -0.0797  0.1875 -0.4392
 3377SOL    HW110266   1.204   4.632   4.364  0.5726 -0.4515  0.1612
 3377SOL    HW210267   1.231   4.772   4.313 -1.0565 -0.3193 -0.3916
 3378SOL     OW10268   1.247   3.315   4.340 -0.0071 -0.5080 -1.0678
 3378SOL    HW110269   1.341   3.326   4.322 -0.2792  0.1464 -2.1833
 3378SOL    HW210270   1.235   3.220   4.345  0.9845 -0.5678  0.7148
 3379SOL     OW10271   1.790   0.219   1.527  0.3765  0.2109 -0.0712
 3379SOL    HW110272   1.843   0.183   1.455 -0.6561 -1.7354  0.0760
 3379SOL    HW210273   1.753   0.142   1.571 -0.8993  1.4347  1.1183
 3380SOL     OW10274   1.215   1.668   2.410  0.2499 -0.2005  0.1365
 3380SOL    HW110275   1.138   1.703   2.456 -0.6331  0.0131 -1.4268
 3380SOL    HW210276   1.194   1.679   2.317  0.4863 -3.6982 -0.4436
 3381SOL     OW10277   1.312   2.706   1.119 -0.2802 -0.4088  0.1155
 3381SOL    HW110278   1.267   2.734   1.200 -0.8671 -1.1642  0.0630
 3381SOL    HW210279   1.259   2.634   1.087  0.0731 -0.2472 -0.8451
 3382SOL     OW10280   0.657   0.041   3.794 -0.3358 -0.8012  0.0841
 3382SOL    HW110281   0.624  -0.002   3.715  1.6009 -0.0227 -1.1907
 3382SOL    HW210282   0.695  -0.030   3.846  1.2439 -0.9091 -1.1826
 3383SOL     OW10283   4.930   2.814   1.122 -0.0866  0.2735 -0.0205
 3383SOL    HW110284   4.979   2.863   1.055  0.4179 -0.0759  0.0903
 3383SOL    HW210285   4.910   2.730   1.080 -3.7513  1.6402 -1.4300
 3384SOL     OW10286   3.315   2.019   0.600  0.1824 -0.4961  0.0523
 3384SOL    HW110287   3.302   1.962   0.676  1.4751  0.6542  1.1926
 3384SOL    HW210288   3.243   2.081   0.604  0.7149  0.0997  0.8922
 3385SOL     OW10289   4.985   4.291   4.399  0.4510 -0.8175  0.0155
 3385SOL    HW110290   5.065   4.254   4.437 -0.5061 -0.5562  2.4474
 3385SOL    HW210291   4.917   4.270   4.462 -1.0738  0.5812 -1.0967
 3386SOL     OW10292   0.126   1.432   4.010  0.3759 -0.2239  0.0082
 3386SOL    HW110293   0.216   1.403   4.001 -0.0266 -1.1679 -1.2710
 3386SOL    HW210294   0.115   1.498   3.941  1.2427  3.1309  2.7639
 3387SOL     OW10295   2.006   2.329   4.771 -0.7164 -0.5508 -0.0666
 3387SOL    HW110296   1.954   2.365   4.699  1.2241 -0.3909 -1.4676
 3387SOL    HW210297   2.009   2.399   4.836 -2.2739 -0.5990  0.0861
 3388SOL     OW10298   3.226   4.401   4.844 -0.2003 -0.3341 -0.0119
 3388SOL    HW110299   3.287   4.431   4.911 -1.3652  1.7073  0.2220
 3388SOL    HW210300   3.232   4.305   4.846  0.5871 -0.2795  2.2249
 3389SOL     OW10301   0.696   3.939   0.521 -0.5628 -0.8153 -0.1892
 3389SOL    HW110302   0.766   4.002   0.537  0.2064 -1.8927  0.8634
 3389SOL    HW210303   0.616   3.989   0.535  0.0312 -0.1621  1.1312
 3390SOL     OW10304   2.620   3.653   0.994 -1.0493 -0.2158  0.1280
 3390SOL    HW110305   2.683   3.711   1.038 -1.1165 -0.1438  0.1300
 3390SOL    HW210306   2.639   3.566   1.030 -1.2849 -0.1139  0.5049
 3391SOL     OW10307   1.463   0.755   3.366  0.0105 -0.9383 -0.4208
 3391SOL    HW110308   1.379   0.783   3.328 -1.2294 -2.5463  0.9683
 3391SOL    HW210309   1.453   0.660   3.377  0.8348 -0.7619  2.5590
 3392SOL     OW10310   2.321   1.404   1.710 -0.0698 -0.0170  0.6030
 3392SOL    HW110311   2.302   1.447   1.627 -0.7275  0.3173  0.9199
 3392SOL    HW210312   2.330   1.311   1.688 -2.5328 -0.2934  0.4557
 3393SOL     OW10313   2.049   0.049   2.406 -0.8315 -0.3974 -0.5562
 3393SOL    HW110314   2.003   0.118   2.454 -0.3902 -0.6389  0.2333
 3393SOL    HW210315   2.019   0.058   2.315 -2.2954 -0.4461 -0.0937
 3394SOL     OW10316   1.491   2.769   2.394 -0.4746  0.8498  0.3142
 3394SOL    HW110317   1.569   2.742   2.444  1.4656  0.7102 -2.5388
 3394SOL    HW210318   1.427   2.792   2.461  1.9462  0.8296  2.8575
 3395SOL     OW10319   0.726   3.424   0.898 -0.5384  0.4008 -0.3154
 3395SOL    HW110320   0.783   3.362   0.852 -0.0778 -0.0332  0.8087
 3395SOL    HW210321   0.776   3.506   0.898 -0.4819  0.3675 -0.4685
 3396SOL     OW10322   1.582   4.777   3.698  0.0732  0.4482 -0.5692
 3396SOL    HW110323   1.652   4.723   3.734 -1.4919 -1.6207 -0.3953
 3396SOL    HW210324   1.618   4.865   3.693  2.8894 -0.6494 -1.1471
 3397SOL     OW10325   2.988   1.304   4.404 -0.3805 -0.0479 -0.2493
 3397SOL    HW110326   2.899   1.294   4.369  0.3388  1.6482 -2.7965
 3397SOL    HW210327   2.979   1.370   4.472 -0.6891  2.7075 -2.7605
 3398SOL     OW10328   4.571   0.124   2.195  0.1733 -0.2687  0.1313
 3398SOL    HW110329   4.601   0.049   2.144  0.9188  0.4226 -0.4727
 3398SOL    HW210330   4.481   0.102   2.220 -0.3093 -0.5561 -1.6703
 3399SOL     OW10331   3.582   1.282   4.594 -0.2532  0.0647  0.8416
 3399SOL    HW110332   3.660   1.335   4.610 -0.8942  0.9692  1.0881
 3399SOL    HW210333   3.513   1.326   4.643 -1.7591  1.4540 -2.2481
 3400SOL     OW10334   4.968   4.935   0.525 -0.2236  0.5869  0.2246
 3400SOL    HW110335   4.980   5.014   0.578 -0.1972  0.4761  0.3854
 3400SOL    HW210336   4.891   4.893   0.561 -1.0048  1.1916 -0.6792
 3401SOL     OW10337   0.942   4.072   3.983 -0.3341 -0.3585 -0.0650
 3401SOL    HW110338   0.959   4.054   4.076  1.9067 -2.6293 -0.8343
 3401SOL    HW210339   0.924   4.166   3.981  0.9684  0.0404  2.4882
 3402SOL     OW10340   1.983   3.608   1.237  0.2184  0.1509 -0.7435
 3402SOL    HW110341   1.949   3.521   1.217  0.5758 -0.5407  1.3782
 3402SOL    HW210342   1.932   3.637   1.311  0.3318  1.6362 -1.2226
 3403SOL     OW10343   4.278   4.246   0.862 -0.3326  0.0319 -0.0650
 3403SOL    HW110344   4.232   4.169   0.829  0.0246 -0.5554  0.7790
 3403SOL    HW210345   4.358   4.250   0.810 -0.6063  0.1628 -0.4836
 3404SOL     OW10346   3.707   2.633   0.305 -0.5572 -0.9427 -0.0907
 3404SOL    HW110347   3.752   2.673   0.231 -3.0797  0.4903 -0.9570
 3404SOL    HW210348   3.685   2.706   0.362 -0.1164 -1.8448  1.3038
 3405SOL     OW10349   3.546   0.269   3.984 -0.3516 -0.0061  0.1396
 3405SOL    HW110350   3.628   0.311   3.957  1.0857 -1.7793  1.5137
 3405SOL    HW210351   3.521   0.214   3.910 -0.4483  0.7152 -0.3725
 3406SOL     OW10352   5.001   0.799   0.062 -0.2505  0.0146  0.2749
 3406SOL    HW110353   4.929   0.741   0.036  0.6618 -0.3398 -1.6884
 3406SOL    HW210354   4.958   0.876   0.099 -1.5827 -0.7782  0.4352
 3407SOL     OW10355   2.559   1.214   0.607  0.1241  0.0980 -0.2209
 3407SOL    HW110356   2.507   1.252   0.677 -0.2388 -0.6107 -0.1065
 3407SOL    HW210357   2.549   1.120   0.616 -0.9366 -0.0040 -1.9606
 3408SOL     OW10358   2.482   2.765   2.262  0.1804  0.0751 -0.2444
 3408SOL    HW110359   2.440   2.804   2.339 -0.2052  0.9320 -0.8643
 3408SOL    HW210360   2.506   2.840   2.208  1.9910 -0.4254 -0.1938
 3409SOL     OW10361   2.187   4.420   3.714  0.1083 -0.2968  0.2899
 3409SOL    HW110362   2.187   4.511   3.744  0.1179 -1.1637  3.2330
 3409SOL    HW210363   2.279   4.401   3.695 -0.1229  0.8280 -2.4759
 3410SOL     OW10364   3.925   0.075   2.585 -0.7434 -0.1237  0.4576
 3410SOL    HW110365   3.862   0.013   2.619 -0.0270 -0.9527  0.3025
 3410SOL    HW210366   3.942   0.046   2.495 -0.2481  0.1676  0.4492
 3411SOL     OW10367   3.742   3.433   2.774  0.0045 -0.4537  0.0648
 3411SOL    HW110368   3.716   3.491   2.702  0.4640 -1.2838 -0.7857
 3411SOL    HW210369   3.732   3.487   2.852 -0.6186  0.4338 -0.6028
 3412SOL     OW10370   0.777   4.480   1.483  0.1442  0.5578  1.1046
 3412SOL    HW110371   0.708   4.493   1.548 -0.2676 -1.3957  1.1236
 3412SOL    HW210372   0.843   4.428   1.528  1.6553  2.3649  1.0723
 3413SOL     OW10373   0.964   2.119   3.664  0.2462 -0.3741 -0.2908
 3413SOL    HW110374   0.971   2.161   3.750  0.1455  2.3935 -1.5262
 3413SOL    HW210375   0.876   2.080   3.663  0.8752 -1.9672  1.4219
 3414SOL     OW10376   2.200   2.192   2.856  0.0084 -0.0727  0.2289
 3414SOL    HW110377   2.150   2.160   2.781  0.8080 -3.8920  1.1430
 3414SOL    HW210378   2.286   2.215   2.820  0.1084 -1.0572 -0.1869
 3415SOL     OW10379   4.858   4.367   1.346 -0.1057 -0.9427  0.0198
 3415SOL    HW110380   4.915   4.299   1.381 -0.1424 -1.4526 -0.8904
 3415SOL    HW210381   4.770   4.327   1.346 -0.2498 -0.6311  0.1717
 3416SOL     OW10382   3.659   3.155   2.180  0.1568 -0.5442  0.1889
 3416SOL    HW110383   3.588   3.148   2.117  0.9417  0.1035 -0.7790
 3416SOL    HW210384   3.638   3.089   2.247 -1.5521 -0.0766  0.1380
 3417SOL     OW10385   2.521   3.969   0.966  0.1032  0.4863 -0.0484
 3417SOL    HW110386   2.605   3.932   0.939  0.0144 -0.5798  1.0792
 3417SOL    HW210387   2.465   3.893   0.982 -1.0166  1.1810 -0.5622
 3418SOL     OW10388   2.135   1.321   4.611  0.6292  0.2182  0.0302
 3418SOL    HW110389   2.077   1.375   4.557  0.5731  0.2960  0.1645
 3418SOL    HW210390   2.123   1.356   4.700  0.6091 -0.0030  0.1143
 3419SOL     OW10391   1.325   1.816   4.078  0.1839 -0.4124  0.5748
 3419SOL    HW110392   1.300   1.780   3.993 -1.5583  0.9947  0.4346
 3419SOL    HW210393   1.346   1.907   4.061  1.8222 -0.6070  1.3624
 3420SOL     OW10394   1.030   3.070   4.958  0.0296 -0.5077 -0.4307
 3420SOL    HW110395   1.056   3.037   4.872  0.6634  1.3195 -0.9955
 3420SOL    HW210396   1.100   3.041   5.017  0.7779  0.1209 -0.9829
 3421SOL     OW10397   0.481   4.669   3.784  0.4411 -0.0159  0.5379
 3421SOL    HW110398   0.490   4.755   3.742 -0.6580 -0.6132 -1.0111
 3421SOL    HW210399   0.392   4.641   3.762  1.1658 -2.0695 -0.0067
 3422SOL     OW10400   4.189   2.819   4.778  0.1189 -0.1933  0.1056
 3422SOL    HW110401   4.257   2.764   4.817 -0.4970 -0.9390  0.1490
 3422SOL    HW210402   4.166   2.775   4.696  0.9160  0.9996 -0.7893
 3423SOL     OW10403   0.809   0.779   0.380 -0.7357 -0.7808  0.1963
 3423SOL    HW110404   0.735   0.794   0.321  0.4390 -1.4619 -1.5552
 3423SOL    HW210405   0.770   0.762   0.465 -2.5353 -0.1784 -0.4753
 3424SOL     OW10406   1.650   0.064   2.408  0.6997  0.3138 -0.2276
 3424SOL    HW110407   1.608   0.098   2.329  1.9442 -1.1053 -1.5421
 3424SOL    HW210408   1.650  -0.031   2.397 -1.7427 -0.2238  2.8654
 3425SOL     OW10409   4.623   2.531   0.740  0.5531  0.2219 -0.1467
 3425SOL    HW110410   4.571   2.467   0.788 -0.1631  0.1353 -1.0172
 3425SOL    HW210411   4.653   2.483   0.662  0.1546  0.8884 -0.7149
 3426SOL     OW10412   1.177   0.544   0.561  0.2775  0.1873 -0.6413
 3426SOL    HW110413   1.164   0.471   0.501  1.5417  1.0430 -2.0529
 3426SOL    HW210414   1.138   0.619   0.517 -2.5990  0.1721  1.5661
 3427SOL     OW10415   4.401   1.228   0.678 -0.2218  0.2731 -0.0094
 3427SOL    HW110416   4.321   1.265   0.714 -0.3063  0.7513 -0.6654
 3427SOL    HW210417   4.383   1.219   0.584 -0.3119 -1.7285  0.1657
 3428SOL     OW10418   2.644   4.632   2.995 -0.2658  0.0632 -0.6723
 3428SOL    HW110419   2.563   4.684   2.995 -1.3545 -1.5099 -2.2421
 3428SOL    HW210420   2.697   4.672   2.926  0.1398  0.8481  0.0836
 3429SOL     OW10421   3.325   1.860   4.803 -0.5240  0.4976  0.1152
 3429SOL    HW110422   3.419   1.879   4.795 -0.7339  1.4032 -0.3656
 3429SOL    HW210423   3.290   1.878   4.715 -1.0164 -0.6639  0.0521
 3430SOL     OW10424   0.527   4.548   0.716  0.2648  0.2204  0.2799
 3430SOL    HW110425   0.569   4.551   0.630  0.1701  2.7885  0.2588
 3430SOL    HW210426   0.529   4.639   0.747 -2.7224 -0.0417  1.5289
 3431SOL     OW10427   4.561   1.139   4.051 -0.0853  0.4907 -0.4288
 3431SOL    HW110428   4.596   1.134   4.140 -2.5604 -0.0703  0.5745
 3431SOL    HW210429   4.603   1.216   4.014 -0.1236  1.6464  1.7522
 3432SOL     OW10430   5.013   1.289   2.617 -0.0488  0.5850  0.2664
 3432SOL    HW110431   4.925   1.325   2.628 -0.2887 -0.4509  2.2038
 3432SOL    HW210432   5.021   1.275   2.522 -1.0742  2.7879 -0.1975
 3433SOL     OW10433   1.329   4.362   4.388  0.3119  0.0360  0.2468
 3433SOL    HW110434   1.317   4.273   4.422  0.5256  0.1345  0.5853
 3433SOL    HW210435   1.413   4.360   4.343  0.0488 -0.0824 -0.2442
 3434SOL     OW10436   2.326   1.284   2.103  1.2206 -0.5951 -0.0689
 3434SOL    HW110437   2.285   1.231   2.035 -0.0548 -0.1536  0.3189
 3434SOL    HW210438   2.380   1.347   2.056 -1.3164  1.1329 -0.8767
 3435SOL     OW10439   2.782   2.293   1.961 -0.2973 -0.4171 -0.1454
 3435SOL    HW110440   2.704   2.247   1.993 -1.3532 -0.5629 -2.6574
 3435SOL    HW210441   2.752   2.382   1.942 -0.3169 -0.8538 -2.4806
 3436SOL     OW10442   4.713   1.438   2.388  0.3922 -0.1598 -0.2159
 3436SOL    HW110443   4.798   1.410   2.356  1.2136 -0.2383  1.8438
 3436SOL    HW210444   4.720   1.431   2.484 -1.9193 -0.1496  0.0179
 3437SOL     OW10445   1.020   0.765   4.661 -0.2598  0.5557  0.0131
 3437SOL    HW110446   1.004   0.795   4.750 -1.2769 -1.3163  0.4880
 3437SOL    HW210447   1.018   0.670   4.666 -0.1480  0.4051 -1.9861
 3438SOL     OW10448   2.065   4.922   3.849 -0.0883 -0.1270  0.4436
 3438SOL    HW110449   2.159   4.939   3.847 -0.1047  0.1412  1.5152
 3438SOL    HW210450   2.024   5.009   3.844 -0.3108 -0.2719 -0.6520
 3439SOL     OW10451   0.363   1.841   2.642  0.1738 -0.1286  0.0768
 3439SOL    HW110452   0.326   1.764   2.685 -0.3319  0.0323 -0.0643
 3439SOL    HW210453   0.457   1.823   2.637  0.4824  0.4282  2.5116
 3440SOL     OW10454   3.532   2.488   4.703 -0.2756  0.0063  0.0725
 3440SOL    HW110455   3.504   2.569   4.744 -1.2528 -0.6746  0.7684
 3440SOL    HW210456   3.468   2.422   4.730  1.0902 -1.2495  0.4164
 3441SOL     OW10457   2.861   0.403   3.911  0.2708 -0.3829  0.1939
 3441SOL    HW110458   2.920   0.413   3.986  0.9251 -2.7850  0.0916
 3441SOL    HW210459   2.781   0.367   3.949  0.3328 -0.8950 -0.1556
 3442SOL     OW10460   4.730   3.518   2.078  0.8598 -0.0471  0.1669
 3442SOL    HW110461   4.722   3.613   2.071  0.3649  0.1231  2.4218
 3442SOL    HW210462   4.816   3.504   2.117  0.4082 -0.4492  1.0302
 3443SOL     OW10463   3.504   1.407   3.046  0.4601  0.3452  0.4041
 3443SOL    HW110464   3.457   1.364   3.118  1.5351  0.6150  1.3024
 3443SOL    HW210465   3.518   1.497   3.076 -0.5022  0.9352 -0.8534
 3444SOL     OW10466   1.746   2.021   0.488 -0.0238 -0.3813  0.3401
 3444SOL    HW110467   1.694   1.941   0.492  0.2576 -0.6431 -0.8264
 3444SOL    HW210468   1.694   2.081   0.434  0.3020 -0.1958  0.2287
 3445SOL     OW10469   4.453   0.046   3.400  0.0884 -0.2207 -0.1936
 3445SOL    HW110470   4.518   0.117   3.401 -0.2330  0.0842 -0.4815
 3445SOL    HW210471   4.398   0.064   3.476 -0.1563 -0.0002 -0.4187
 3446SOL     OW10472   3.445   2.642   3.093 -0.2449  0.0649  0.3152
 3446SOL    HW110473   3.473   2.693   3.169  2.9075 -0.9384  0.0026
 3446SOL    HW210474   3.468   2.698   3.018  2.5444 -1.3167 -0.0008
 3447SOL     OW10475   4.181   0.338   1.794  0.6758 -0.2045 -0.0934
 3447SOL    HW110476   4.186   0.423   1.838  0.6580 -0.8082  1.1249
 3447SOL    HW210477   4.228   0.350   1.712  0.7045  0.9716  0.0793
 3448SOL     OW10478   3.054   0.553   2.807 -0.3661 -0.9313 -0.0532
 3448SOL    HW110479   3.149   0.551   2.801 -0.2171  1.6256  0.3610
 3448SOL    HW210480   3.025   0.580   2.719 -0.5449  0.3520  0.3830
 3449SOL     OW10481   3.650   1.949   0.421  0.1925 -0.1415 -0.3036
 3449SOL    HW110482   3.624   2.036   0.391 -0.4095 -0.4711 -0.7596
 3449SOL    HW210483   3.628   1.948   0.514 -0.7988 -0.1657 -0.5257
 3450SOL     OW10484   1.488   4.200   2.439  0.5426 -0.2584  0.0670
 3450SOL    HW110485   1.418   4.144   2.406 -1.2560  1.9116 -0.0000
 3450SOL    HW210486   1.562   4.182   2.381 -0.5135 -1.2747 -1.0288
 3451SOL     OW10487   3.293   0.906   0.648 -0.2642  0.3726  0.2208
 3451SOL    HW110488   3.287   1.001   0.634  0.4618  0.4275  0.2501
 3451SOL    HW210489   3.383   0.884   0.623  0.1282 -0.0204  1.8542
 3452SOL     OW10490   1.769   3.227   1.694  0.8059  0.0936 -0.0895
 3452SOL    HW110491   1.707   3.199   1.627 -0.9103  0.6899  1.1808
 3452SOL    HW210492   1.781   3.150   1.750 -0.5324  0.5640  0.9039
 3453SOL     OW10493   4.278   3.261   3.600  0.1833 -0.4627 -0.2476
 3453SOL    HW110494   4.206   3.291   3.544  0.0650  0.5099  0.3962
 3453SOL    HW210495   4.238   3.195   3.656 -0.5330  0.8619  0.8737
 3454SOL     OW10496   3.287   4.993   0.602  0.3119 -0.5150 -0.0671
 3454SOL    HW110497   3.366   4.950   0.635  0.1879 -1.1532 -0.5902
 3454SOL    HW210498   3.318   5.049   0.531  0.2970 -0.7324 -0.2440
 3455SOL     OW10499   3.704   0.205   4.931 -0.1665 -0.1128 -0.0487
 3455SOL    HW110500   3.662   0.195   4.845 -0.5606  1.0912 -0.0196
 3455SOL    HW210501   3.753   0.124   4.943 -2.3489 -1.5291 -0.1348
 3456SOL     OW10502   0.428   0.559   0.627 -0.6798  0.3473  0.0525
 3456SOL    HW110503   0.444   0.509   0.708 -1.7978 -1.3086 -0.6886
 3456SOL    HW210504   0.515   0.587   0.598  0.0488 -1.4804  0.3446
 3457SOL     OW10505   1.649   4.520   2.826  0.0588 -0.0184 -0.4456
 3457SOL    HW110506   1.608   4.436   2.808  2.2216 -1.1835 -0.3013
 3457SOL    HW210507   1.691   4.545   2.744  0.7617  0.1149 -0.0588
 3458SOL     OW10508   3.367   1.184   2.642  0.0197 -0.0877  0.4744
 3458SOL    HW110509   3.342   1.277   2.645  0.8393  0.2420 -1.3222
 3458SOL    HW210510   3.421   1.177   2.563  0.3440 -2.0177  0.8296
 3459SOL     OW10511   3.723   2.610   0.690 -0.0724  0.3792  0.4365
 3459SOL    HW110512   3.661   2.593   0.761  0.8752 -0.4367  1.0968
 3459SOL    HW210513   3.805   2.569   0.719  0.0804 -0.8985 -1.5613
 3460SOL     OW10514   4.703   0.412   1.583  0.4733 -0.0484 -0.3741
 3460SOL    HW110515   4.743   0.376   1.504 -1.1133 -1.9316 -0.3879
 3460SOL    HW210516   4.696   0.338   1.643 -1.4401  0.5596  0.2402
 3461SOL     OW10517   3.819   2.369   3.598 -0.0660 -0.4593 -0.4497
 3461SOL    HW110518   3.908   2.391   3.570 -0.2066 -0.1142 -0.6327
 3461SOL    HW210519   3.780   2.326   3.521 -0.5469  0.7449 -0.9082
 3462SOL     OW10520   1.558   2.858   1.047 -0.0778 -0.3068 -0.0328
 3462SOL    HW110521   1.478   2.817   1.079 -0.2233 -0.8880 -1.0881
 3462SOL    HW210522   1.539   2.881   0.956  0.9771 -0.5154 -0.3254
 3463SOL     OW10523   0.142   3.063  -0.004  1.4635  0.3701  0.2901
 3463SOL    HW110524   0.068   3.120  -0.026  0.7136 -0.7629 -0.2767
 3463SOL    HW210525   0.186   3.107   0.068  1.5278  2.1501 -0.7898
 3464SOL     OW10526   1.823   2.569   1.994 -0.2223 -0.2104  0.5648
 3464SOL    HW110527   1.840   2.658   1.964 -6.3180  1.4481  0.6734
 3464SOL    HW210528   1.827   2.516   1.914  1.1046  0.5987  0.0593
 3465SOL     OW10529   1.225   0.372   3.201 -0.0973 -0.2575 -0.2955
 3465SOL    HW110530   1.312   0.332   3.194  0.0387 -0.5353  2.1930
 3465SOL    HW210531   1.233   0.434   3.274 -1.7760  0.3421 -0.5883
 3466SOL     OW10532   0.618   2.852   2.110  0.4862 -0.5803  0.3345
 3466SOL    HW110533   0.619   2.948   2.106 -0.2335 -0.5060  1.4667
 3466SOL    HW210534   0.640   2.824   2.021  1.3720  0.6257  0.1497
 3467SOL     OW10535   2.619   3.572   3.454  0.2615  0.2892  0.1019
 3467SOL    HW110536   2.706   3.605   3.433  0.7858 -1.0434  0.1124
 3467SOL    HW210537   2.608   3.494   3.399 -0.1154 -0.7067  1.5149
 3468SOL     OW10538   3.563   2.193   0.367 -0.0941  0.0843 -0.0795
 3468SOL    HW110539   3.511   2.247   0.426  3.1171  1.2043  1.9978
 3468SOL    HW210540   3.612   2.255   0.314  0.3381 -0.8613 -0.8222
 3469SOL     OW10541   1.364   3.034   2.493 -0.5167 -0.1027  0.0956
 3469SOL    HW110542   1.285   3.079   2.524 -1.2349 -0.8751 -0.5603
 3469SOL    HW210543   1.422   3.032   2.569 -1.0798  0.5737  0.5587
 3470SOL     OW10544   2.856   4.931   2.408  0.1721  0.0425 -0.3892
 3470SOL    HW110545   2.832   4.838   2.404  1.5856 -0.6413  3.1688
 3470SOL    HW210546   2.836   4.957   2.498  1.7538  2.6167 -0.6915
 3471SOL     OW10547   0.888   3.601   1.927  0.2163 -0.1525 -0.3187
 3471SOL    HW110548   0.825   3.660   1.969 -0.4505 -0.3176 -1.0489
 3471SOL    HW210549   0.838   3.560   1.856  1.3736  0.2981 -1.4358
 3472SOL     OW10550   0.982   1.441   4.257  0.2168 -0.4977 -0.0116
 3472SOL    HW110551   1.009   1.425   4.167 -0.1558  1.1522 -0.4401
 3472SOL    HW210552   0.896   1.400   4.265  1.1139 -2.4794  0.2600
 3473SOL     OW10553   2.178   1.088   4.050  0.4164  0.6899  0.8896
 3473SOL    HW110554   2.138   1.159   4.000 -2.6257 -0.1547  1.9061
 3473SOL    HW210555   2.133   1.089   4.134 -0.0217 -2.6168  0.8354
 3474SOL     OW10556   3.239   1.538   1.763  0.0433  0.4067  1.0993
 3474SOL    HW110557   3.327   1.575   1.771  0.2421  0.3308 -0.4354
 3474SOL    HW210558   3.251   1.444   1.774 -0.1112  0.5349  2.5608
 3475SOL     OW10559   2.607   4.759   4.396  0.3898 -0.1374  0.0023
 3475SOL    HW110560   2.669   4.722   4.459  2.5767  4.9556  1.3220
 3475SOL    HW210561   2.526   4.770   4.447  0.5412 -0.6094  0.3543
 3476SOL     OW10562   1.779   3.916   2.430 -0.1176  0.1721  0.1915
 3476SOL    HW110563   1.719   3.886   2.498 -0.5925 -2.8471 -1.3596
 3476SOL    HW210564   1.854   3.857   2.436  0.0358  0.1208 -1.5492
 3477SOL     OW10565   3.942   1.307   0.581  1.1422  0.0183  0.0053
 3477SOL    HW110566   3.922   1.239   0.645  0.9808  0.6864  0.6902
 3477SOL    HW210567   4.037   1.306   0.572  1.1454 -0.2340  0.0850
 3478SOL     OW10568   1.746   1.468   3.512  0.5565  0.1673  0.5082
 3478SOL    HW110569   1.779   1.396   3.567  1.3379 -0.6230 -0.9278
 3478SOL    HW210570   1.715   1.425   3.432 -0.7601  1.2615  0.3975
 3479SOL     OW10571   0.249   0.926   3.396  0.4491  0.9071  0.4337
 3479SOL    HW110572   0.191   0.900   3.324  0.1922  0.9241  0.6359
 3479SOL    HW210573   0.327   0.872   3.384 -0.5732 -0.9326  1.5999
 3480SOL     OW10574   5.013   3.850   2.951 -0.5995 -0.2756 -0.1513
 3480SOL    HW110575   4.919   3.867   2.949 -0.9423 -2.0182 -0.9778
 3480SOL    HW210576   5.030   3.801   2.870  1.0033 -0.0473  0.0199
 3481SOL     OW10577   1.130   3.455   0.403 -0.6756 -0.5983  0.3432
 3481SOL    HW110578   1.058   3.417   0.353 -0.2102 -0.9127 -0.1121
 3481SOL    HW210579   1.139   3.399   0.480 -0.7550 -0.7120  0.2700
 3482SOL     OW10580   1.437   1.435   0.067  0.1533 -0.1490 -0.1693
 3482SOL    HW110581   1.474   1.352   0.096  0.3537  0.6543  1.9966
 3482SOL    HW210582   1.403   1.416  -0.021  1.5112 -2.1060 -0.3418
 3483SOL     OW10583   0.661   3.285   4.398  0.0958  0.2471  0.2708
 3483SOL    HW110584   0.620   3.212   4.446  0.9711 -1.1588 -1.0183
 3483SOL    HW210585   0.587   3.338   4.369 -0.8034 -1.5967 -1.0073
 3484SOL     OW10586   0.983   1.408   2.370  0.2382  0.2509 -0.4902
 3484SOL    HW110587   1.008   1.321   2.339  0.7283 -0.0405  0.6703
 3484SOL    HW210588   0.960   1.456   2.290  0.2881 -0.8283 -1.1805
 3485SOL     OW10589   4.246   3.967   3.509 -0.2510 -0.2071  1.2251
 3485SOL    HW110590   4.230   4.052   3.468 -0.4511 -0.3550  0.9944
 3485SOL    HW210591   4.269   3.909   3.437  2.7892  0.2968  1.6459
 3486SOL     OW10592   4.245   0.456   2.401  0.3826  0.0914  0.2746
 3486SOL    HW110593   4.178   0.521   2.382  1.0403 -0.2928 -4.9390
 3486SOL    HW210594   4.327   0.506   2.404  0.6082 -0.1466 -1.1806
 3487SOL     OW10595   1.828   1.648   3.229  0.0834  0.3981  0.1121
 3487SOL    HW110596   1.801   1.575   3.174  0.3162 -0.0775  0.6213
 3487SOL    HW210597   1.827   1.613   3.318 -0.3125  1.1655  0.4150
 3488SOL     OW10598   4.183   4.074   0.116 -0.3309 -0.2045  0.0134
 3488SOL    HW110599   4.229   4.081   0.032 -0.7876  0.0635 -0.2205
 3488SOL    HW210600   4.101   4.122   0.102 -0.8383 -0.9662  0.3097
 3489SOL     OW10601   2.008   3.435   2.666 -0.0776 -0.4673 -0.1228
 3489SOL    HW110602   1.950   3.376   2.712 -0.1919  0.6899  1.2956
 3489SOL    HW210603   2.094   3.422   2.708 -0.0611  0.1979  0.0619
 3490SOL     OW10604   1.570   1.543   1.624  1.0301  0.7888  0.1454
 3490SOL    HW110605   1.553   1.517   1.715  1.1344  0.5222  0.0882
 3490SOL    HW210606   1.653   1.501   1.602  3.4298  4.3852  1.3980
 3491SOL     OW10607   1.320   4.495   2.038 -0.0988  0.1772  0.7101
 3491SOL    HW110608   1.323   4.480   2.133  0.3013 -2.0425  0.3830
 3491SOL    HW210609   1.245   4.445   2.007  0.5119 -0.1269 -0.3153
 3492SOL     OW10610   1.875   4.947   0.624  0.4089  0.4588  0.1054
 3492SOL    HW110611   1.944   4.881   0.618  0.0614 -0.1465  2.0012
 3492SOL    HW210612   1.795   4.901   0.598  0.0323 -0.1677  2.2003
 3493SOL     OW10613   2.838   0.071   4.878 -0.9040  0.8161  0.4208
 3493SOL    HW110614   2.904   0.066   4.809  0.2792 -1.1532  1.5820
 3493SOL    HW210615   2.861  -0.001   4.938 -3.1337  1.1134  1.7460
 3494SOL     OW10616   2.855   4.204   2.948  0.4545  0.2707  0.3771
 3494SOL    HW110617   2.911   4.220   2.872  0.3531  1.0000  0.4546
 3494SOL    HW210618   2.803   4.283   2.957 -1.1249 -0.6621 -0.1181
 3495SOL     OW10619   3.839   2.258   2.669 -0.3544  0.2481  0.4616
 3495SOL    HW110620   3.823   2.341   2.622  0.9868 -0.0115 -0.5111
 3495SOL    HW210621   3.934   2.248   2.669 -0.4280 -0.6971  1.6661
 3496SOL     OW10622   0.718   2.246   0.254 -0.0456  0.0163 -0.3919
 3496SOL    HW110623   0.755   2.186   0.318 -1.5229 -2.9063 -2.0281
 3496SOL    HW210624   0.644   2.287   0.299  0.5598  0.0783  0.5650
 3497SOL     OW10625   3.239   2.651   1.161 -0.7221 -0.5296 -0.1975
 3497SOL    HW110626   3.211   2.734   1.123 -1.8878 -0.9741 -0.3705
 3497SOL    HW210627   3.213   2.656   1.253  1.2113  0.1546  0.3552
 3498SOL     OW10628   2.208   2.284   3.870  0.2532 -0.2935  0.2075
 3498SOL    HW110629   2.208   2.306   3.963  0.8307  0.4331  0.0415
 3498SOL    HW210630   2.146   2.211   3.863 -1.2051  0.8263  0.8740
 3499SOL     OW10631   4.255   2.584   0.677 -0.2060  0.2203 -0.4707
 3499SOL    HW110632   4.333   2.627   0.714 -1.9302  1.0262  2.6239
 3499SOL    HW210633   4.289   2.507   0.632  2.4062  0.6425  0.5762
 3500SOL     OW10634   2.759   3.787   0.654  0.0148 -0.3963 -0.3693
 3500SOL    HW110635   2.679   3.824   0.616  0.7228  1.5534 -0.1106
 3500SOL    HW210636   2.750   3.801   0.748  1.0526  0.7887 -0.4145
 3501SOL     OW10637   0.269   2.586   4.622 -0.3402  0.5070  0.1348
 3501SOL    HW110638   0.327   2.610   4.695  2.0088 -2.4921 -0.5338
 3501SOL    HW210639   0.320   2.605   4.543 -0.5807 -1.3572 -0.5154
 3502SOL     OW10640   1.594   1.464   4.550  0.4745  0.4148  0.1833
 3502SOL    HW110641   1.632   1.434   4.632  1.9026 -0.8510 -0.8831
 3502SOL    HW210642   1.538   1.538   4.575  0.6571 -0.0947  2.3018
 3503SOL     OW10643   4.521   1.646   2.345 -0.2975 -0.0517  0.3365
 3503SOL    HW110644   4.486   1.651   2.434 -0.7635  0.1774  0.1444
 3503SOL    HW210645   4.598   1.590   2.353  0.5407  1.1788  1.1612
 3504SOL     OW10646   4.335   0.765   4.137  0.3215 -0.3838  0.1095
 3504SOL    HW110647   4.329   0.835   4.071  1.0983 -2.2962 -2.1572
 3504SOL    HW210648   4.254   0.715   4.125  1.0303 -1.4618 -0.3192
 3505SOL     OW10649   4.514   4.221   0.684  0.1332 -0.2387 -0.0070
 3505SOL    HW110650   4.437   4.209   0.629 -0.0968 -0.1639  0.2949
 3505SOL    HW210651   4.588   4.198   0.628 -0.1379 -0.7390 -0.1628
 3506SOL     OW10652   0.816   0.741   2.126 -0.1058 -0.5218 -0.1287
 3506SOL    HW110653   0.834   0.750   2.032  0.2150  2.0470  0.1219
 3506SOL    HW210654   0.739   0.795   2.142 -0.4046 -1.2499  1.0399
 3507SOL     OW10655   1.677   3.453   1.219 -0.1116  0.3595  0.1976
 3507SOL    HW110656   1.676   3.544   1.189  0.2279 -0.0758 -1.2349
 3507SOL    HW210657   1.768   3.426   1.210 -0.4212 -0.4768 -0.5799
 3508SOL     OW10658   3.309   0.439   1.135  0.0918 -0.0541  0.3933
 3508SOL    HW110659   3.364   0.445   1.057 -0.7883  2.4931 -0.0999
 3508SOL    HW210660   3.248   0.367   1.116  0.1076  0.3142 -1.1325
 3509SOL     OW10661   1.048   3.036   1.264 -0.0896 -0.1307 -0.0447
 3509SOL    HW110662   1.116   3.018   1.329  0.6674  1.3087 -0.3972
 3509SOL    HW210663   0.987   3.095   1.308  0.5972  1.1099 -0.7001
 3510SOL     OW10664   0.033   3.449   4.077 -0.2590 -0.3522 -0.5032
 3510SOL    HW110665  -0.035   3.462   4.144 -0.9333  1.8555 -1.5184
 3510SOL    HW210666   0.070   3.536   4.064  3.3024 -1.5599  0.4536
 3511SOL     OW10667   1.065   4.089   4.247 -0.5651 -0.0471  0.0715
 3511SOL    HW110668   1.101   4.031   4.314 -0.0928  1.2975  1.0272
 3511SOL    HW210669   1.007   4.148   4.295  0.3141  1.3954 -0.5723
 3512SOL     OW10670   2.500   4.670   2.350 -0.0905  0.0320  0.6418
 3512SOL    HW110671   2.594   4.675   2.333  0.0446 -1.9237  0.5913
 3512SOL    HW210672   2.465   4.754   2.318  1.3177 -0.1314 -1.5388
 3513SOL     OW10673   0.255   4.467   1.854 -0.1822  0.2060 -0.0004
 3513SOL    HW110674   0.161   4.459   1.867 -0.3990  0.1929 -1.4429
 3513SOL    HW210675   0.286   4.378   1.841  0.1534  0.1421  1.1054
 3514SOL     OW10676   0.653   3.908   2.271 -0.4743  0.0133  0.3470
 3514SOL    HW110677   0.728   3.873   2.318 -0.7296 -0.0193  0.7340
 3514SOL    HW210678   0.578   3.891   2.328 -0.6276  1.0073  0.4587
 3515SOL     OW10679   3.426   2.901   0.474 -0.0839  0.4269  0.4279
 3515SOL    HW110680   3.388   2.969   0.530  1.8600  1.8228  0.1628
 3515SOL    HW210681   3.429   2.941   0.387 -2.9378 -1.6678 -0.7767
 3516SOL     OW10682   3.689   2.228   3.774  0.3012  0.1024 -0.1059
 3516SOL    HW110683   3.724   2.283   3.703  1.6999 -0.7097 -0.0850
 3516SOL    HW210684   3.694   2.139   3.739 -2.9710 -0.0333 -0.5762
 3517SOL     OW10685   5.022   4.417   1.923 -0.5563  0.4932 -0.1741
 3517SOL    HW110686   4.931   4.402   1.897 -1.1499  1.3895  1.2774
 3517SOL    HW210687   5.025   4.393   2.015  0.3122  1.8890  0.1943
 3518SOL     OW10688   4.501   0.057   0.003 -0.7453  0.8346 -0.1978
 3518SOL    HW110689   4.487  -0.036  -0.012  0.5407  0.8180 -1.5963
 3518SOL    HW210690   4.538   0.062   0.092 -0.1365 -0.0753 -0.3852
 3519SOL     OW10691   0.523   0.843   3.104 -0.3897  0.3585  0.8717
 3519SOL    HW110692   0.512   0.797   3.187  2.1055 -1.2120  0.4500
 3519SOL    HW210693   0.575   0.783   3.050 -0.6321  1.9580 -1.2764
 3520SOL     OW10694   2.969   0.633   4.521 -0.6160  0.2595 -0.3495
 3520SOL    HW110695   3.048   0.663   4.476  0.0435 -0.4217  0.3468
 3520SOL    HW210696   2.900   0.643   4.455  0.2612 -0.3415 -1.3977
 3521SOL     OW10697   4.223   1.907   1.112 -0.0709  0.4792 -0.1473
 3521SOL    HW110698   4.133   1.940   1.113  0.7930  2.9612  0.2534
 3521SOL    HW210699   4.266   1.950   1.186  1.9848  0.9638 -1.5339
 3522SOL     OW10700   1.540   3.278   0.771 -0.3123  0.9836 -0.1655
 3522SOL    HW110701   1.497   3.362   0.788 -1.3784  0.4647 -0.2406
 3522SOL    HW210702   1.488   3.238   0.702  0.7396  0.6517 -0.7949
 3523SOL     OW10703   3.815   0.929   4.900  0.1394 -0.5687 -0.5920
 3523SOL    HW110704   3.767   0.877   4.964  1.1690  0.1320  0.8131
 3523SOL    HW210705   3.747   0.975   4.850 -0.7084 -1.8498 -0.6478
 3524SOL     OW10706   1.372   2.394   4.793  0.2339  0.6371 -0.1479
 3524SOL    HW110707   1.355   2.361   4.705  1.5001 -2.5804  0.6719
 3524SOL    HW210708   1.467   2.410   4.794  0.2418  0.5757  0.6529
 3525SOL     OW10709   1.727   4.405   0.097 -0.2987  0.2447  0.0044
 3525SOL    HW110710   1.651   4.400   0.155 -0.7731  0.6798 -0.5674
 3525SOL    HW210711   1.698   4.361   0.016  1.2703 -2.9403  1.0024
 3526SOL     OW10712   0.155   1.354   3.224  0.4850 -0.0356  0.0267
 3526SOL    HW110713   0.192   1.341   3.136  3.0494  0.1363  1.0225
 3526SOL    HW210714   0.230   1.370   3.280 -1.1500  0.5165  2.1868
 3527SOL     OW10715   4.261   4.110   1.106 -0.2349  0.0616 -0.1528
 3527SOL    HW110716   4.318   4.034   1.120  1.1866  1.1905  0.4182
 3527SOL    HW210717   4.262   4.123   1.011 -0.7144 -0.7841 -0.2832
 3528SOL     OW10718   1.875   4.585   2.598 -1.0388  0.3435 -0.4143
 3528SOL    HW110719   1.878   4.492   2.579 -1.3086  0.5410 -1.5274
 3528SOL    HW210720   1.961   4.618   2.572 -0.4020  0.1814  1.3787
 3529SOL     OW10721   3.986   3.784   2.418  0.2155 -0.1763 -0.3188
 3529SOL    HW110722   3.935   3.769   2.497  1.9440 -1.1737  0.6709
 3529SOL    HW210723   4.020   3.698   2.394  1.6103  0.4749 -0.7991
 3530SOL     OW10724   2.044   0.050   4.578 -0.3681  0.5200 -0.2476
 3530SOL    HW110725   2.077   0.135   4.547 -1.7191  0.7820 -1.0606
 3530SOL    HW210726   2.079  -0.013   4.515  1.2765  0.3329  0.7942
 3531SOL     OW10727   1.778   2.342   1.807 -0.7707 -0.9134 -0.2407
 3531SOL    HW110728   1.704   2.296   1.847  0.2864 -3.3326 -0.8517
 3531SOL    HW210729   1.829   2.273   1.764  2.0705  0.5487  0.4717
 3532SOL     OW10730   3.427   3.368   2.219 -0.3287 -0.0977 -0.5076
 3532SOL    HW110731   3.400   3.301   2.156 -1.1207  0.3473 -0.6475
 3532SOL    HW210732   3.500   3.328   2.266  0.0121 -0.5854 -1.4303
 3533SOL     OW10733   3.246   3.248   5.058  0.5324  0.1915 -0.0446
 3533SOL    HW110734   3.261   3.335   5.020  0.4967  1.7985  3.2141
 3533SOL    HW210735   3.170   3.214   5.012 -2.6318  4.1156  1.6411
 3534SOL     OW10736   4.647   4.011   1.344  0.0212  0.0523 -0.3262
 3534SOL    HW110737   4.725   4.012   1.289  0.7365  1.2329  0.6517
 3534SOL    HW210738   4.634   3.919   1.366  0.3717 -0.3052 -1.5346
 3535SOL     OW10739   0.503   3.920   4.084 -0.0515 -0.5477  0.8699
 3535SOL    HW110740   0.528   3.902   3.994 -1.6089 -0.1941  0.3274
 3535SOL    HW210741   0.559   3.992   4.111 -0.6753  0.4667 -0.4113
 3536SOL     OW10742   4.282   4.721   3.598 -0.4431 -0.3325 -0.5760
 3536SOL    HW110743   4.308   4.689   3.684 -0.0740  1.5816  0.0830
 3536SOL    HW210744   4.347   4.788   3.576  0.2289 -1.6534 -2.9561
 3537SOL     OW10745   4.934   0.860   2.462  0.2249 -0.3133  0.4001
 3537SOL    HW110746   4.869   0.790   2.452  2.2874 -2.7475  2.5111
 3537SOL    HW210747   4.914   0.899   2.548 -0.9843  1.9558 -0.8024
 3538SOL     OW10748   4.760   0.089   4.885  0.5925 -0.4360 -0.0897
 3538SOL    HW110749   4.795   0.155   4.825  2.9367 -0.1033  1.5053
 3538SOL    HW210750   4.692   0.136   4.935 -1.6744 -0.8241 -2.5769
 3539SOL     OW10751   2.496   0.276   3.113 -0.2064  0.1178  0.2486
 3539SOL    HW110752   2.563   0.218   3.076 -1.4095 -0.3116 -1.3841
 3539SOL    HW210753   2.465   0.230   3.191  0.6107 -0.2266  0.3760
 3540SOL     OW10754   0.541   3.476   1.992  0.2737 -0.8398 -0.4991
 3540SOL    HW110755   0.563   3.475   2.085  0.3152 -0.8160 -0.5084
 3540SOL    HW210756   0.603   3.415   1.952  0.6198 -0.4380 -0.5903
 3541SOL     OW10757   3.892   4.366   2.006 -0.5250  0.2190 -0.0579
 3541SOL    HW110758   3.876   4.415   1.925  0.7549  1.7063  0.5211
 3541SOL    HW210759   3.933   4.430   2.064  0.7808 -1.4318  0.9314
 3542SOL     OW10760   4.251   2.688   1.844 -0.3785  0.5559  0.4208
 3542SOL    HW110761   4.239   2.682   1.939  3.4508  2.9633  1.2628
 3542SOL    HW210762   4.203   2.768   1.820 -0.8411  0.2774  0.3937
 3543SOL     OW10763   0.725   4.815   3.564 -0.4681 -0.3378  0.2893
 3543SOL    HW110764   0.741   4.725   3.535 -0.7904  0.5786 -3.2190
 3543SOL    HW210765   0.809   4.843   3.601  0.6840 -1.1663 -1.5074
 3544SOL     OW10766   4.294   4.564   4.406 -0.0561 -0.5756 -0.1531
 3544SOL    HW110767   4.379   4.521   4.406  0.6248  0.7052  0.1218
 3544SOL    HW210768   4.302   4.635   4.471 -1.0805  0.0284 -0.6442
 3545SOL     OW10769   0.609   4.828   4.153 -0.0848 -0.5501  0.4090
 3545SOL    HW110770   0.574   4.914   4.129  0.7132 -0.1919  0.5083
 3545SOL    HW210771   0.537   4.767   4.133 -0.2673  0.0005 -0.7077
 3546SOL     OW10772   2.008   2.022   1.083 -0.3411 -0.1398 -0.0788
 3546SOL    HW110773   2.077   2.063   1.031  1.0595 -0.5035  1.4145
 3546SOL    HW210774   2.041   2.024   1.173 -1.8966 -1.1309  0.5610
 3547SOL     OW10775   4.722   3.641   4.499  0.1299  0.3689  0.3798
 3547SOL    HW110776   4.665   3.656   4.574 -1.0226 -0.4545 -0.2864
 3547SOL    HW210777   4.695   3.707   4.435  1.0420  1.0087  0.6301
 3548SOL     OW10778   0.912   2.385   3.063  0.2400  0.7405 -0.3548
 3548SOL    HW110779   0.906   2.296   3.097  0.6015 -0.1040 -2.3601
 3548SOL    HW210780   1.000   2.414   3.086  0.5923  0.0659 -0.8139
 3549SOL     OW10781   4.749   0.346   3.140 -0.2541 -1.2249  0.3306
 3549SOL    HW110782   4.802   0.332   3.218 -1.3113  0.5713  1.4504
 3549SOL    HW210783   4.812   0.355   3.068  0.8105 -1.5169  1.2069
 3550SOL     OW10784   0.279   0.602   3.431  0.1414 -0.1078 -0.0499
 3550SOL    HW110785   0.197   0.609   3.382 -1.1941 -0.1716  2.0334
 3550SOL    HW210786   0.290   0.508   3.444  0.0995 -0.0628  0.3347
 3551SOL     OW10787   4.055   1.064   2.335  0.1360 -0.2964  0.7084
 3551SOL    HW110788   4.085   1.006   2.405 -0.9734 -2.8576 -0.7954
 3551SOL    HW210789   3.972   1.026   2.307  0.8129  0.2759 -2.3634
 3552SOL     OW10790   3.315   4.057   2.809  0.4689  0.2530 -0.1830
 3552SOL    HW110791   3.345   4.115   2.879  0.0735  0.0326  0.1714
 3552SOL    HW210792   3.346   4.099   2.729  0.7669  0.6025  0.1115
 3553SOL     OW10793   2.624   2.253   0.267 -0.2695 -0.2775  0.7520
 3553SOL    HW110794   2.587   2.339   0.286  0.0677  0.0448 -0.0061
 3553SOL    HW210795   2.712   2.272   0.235 -0.3771 -0.8682  0.0788
 3554SOL     OW10796   4.148   4.542   4.143  0.3394 -0.2295 -0.0046
 3554SOL    HW110797   4.150   4.568   4.235  2.9930  0.0510 -0.0427
 3554SOL    HW210798   4.194   4.458   4.141  2.5263  0.8796 -1.2663
 3555SOL     OW10799   1.431   3.870   1.716  0.2496 -0.0244  0.6899
 3555SOL    HW110800   1.375   3.907   1.785  0.6018  1.1265  0.3824
 3555SOL    HW210801   1.410   3.922   1.638 -0.8317 -1.9068 -0.3565
 3556SOL     OW10802   4.526   0.838   1.066 -0.0887  0.1738 -0.3406
 3556SOL    HW110803   4.593   0.772   1.048 -1.4594 -0.9752 -1.6325
 3556SOL    HW210804   4.509   0.878   0.980 -1.9289 -0.4833 -0.3197
 3557SOL     OW10805   4.027   4.649   0.832 -0.3898  0.2210 -0.2133
 3557SOL    HW110806   4.007   4.697   0.913  1.2585  0.2518  0.2218
 3557SOL    HW210807   4.061   4.565   0.863  2.3842  1.0538 -0.7354
 3558SOL     OW10808   3.669   1.763   4.169 -0.4713  0.3313 -0.1692
 3558SOL    HW110809   3.589   1.722   4.135  0.4185  0.0593 -2.0222
 3558SOL    HW210810   3.737   1.697   4.156  0.2945  1.0192  0.2655
 3559SOL     OW10811   3.379   4.646   4.266  0.1078  0.0759 -0.1671
 3559SOL    HW110812   3.426   4.714   4.314 -0.3108  0.0087  0.3384
 3559SOL    HW210813   3.396   4.566   4.315 -1.8003  0.2911  0.9446
 3560SOL     OW10814   4.931   2.265   3.450  0.2107  0.5364  0.3305
 3560SOL    HW110815   4.861   2.260   3.515  0.3694 -1.7946  0.4351
 3560SOL    HW210816   4.913   2.192   3.390  0.8933  1.7354 -1.4196
 3561SOL     OW10817   1.346   4.378   4.871  0.8212  0.3015 -0.1221
 3561SOL    HW110818   1.320   4.468   4.888  0.4789  0.8160 -2.8653
 3561SOL    HW210819   1.438   4.385   4.844  1.3225 -0.4391  1.2697
 3562SOL     OW10820   1.047   1.816   2.579  0.5328 -0.7197  0.2672
 3562SOL    HW110821   0.988   1.887   2.556  0.9946 -1.0274 -2.2436
 3562SOL    HW210822   0.991   1.738   2.585  0.4096 -0.6500  0.0223
 3563SOL     OW10823   2.757   2.972   1.965  0.0300 -0.0870 -0.0389
 3563SOL    HW110824   2.706   2.904   1.923 -0.1640 -0.7812  1.2671
 3563SOL    HW210825   2.848   2.947   1.949 -0.0368 -0.7978  0.6234
 3564SOL     OW10826   4.699   0.727   4.496  0.8936 -0.2510 -0.1301
 3564SOL    HW110827   4.666   0.647   4.536  0.2456  0.3302  0.5169
 3564SOL    HW210828   4.663   0.727   4.408  1.1081 -0.7956 -0.2191
 3565SOL     OW10829   1.652   1.003   2.574 -0.3870 -0.1937 -0.0421
 3565SOL    HW110830   1.701   0.971   2.649 -0.4558 -0.1351  0.0278
 3565SOL    HW210831   1.670   0.940   2.505  1.0712  0.6621 -0.4950
 3566SOL     OW10832   2.876   0.155   0.267  0.3292  0.0728 -0.0721
 3566SOL    HW110833   2.858   0.076   0.217 -1.0019 -0.4637  1.1855
 3566SOL    HW210834   2.885   0.124   0.358 -1.9282  1.5234  0.7128
 3567SOL     OW10835   3.535   4.957   4.180 -0.6269  0.0756 -0.3681
 3567SOL    HW110836   3.504   4.924   4.264  1.0575 -1.6945 -0.3923
 3567SOL    HW210837   3.491   4.903   4.115  0.4946 -0.7128 -0.4908
 3568SOL     OW10838   2.071   1.734   2.496 -0.4403 -0.1555 -0.0943
 3568SOL    HW110839   1.997   1.794   2.487 -0.7559 -0.3727  0.8698
 3568SOL    HW210840   2.138   1.785   2.542 -1.0211 -0.7447  1.4982
 3569SOL     OW10841   2.242   0.596   2.754 -0.3229  0.0431  0.1335
 3569SOL    HW110842   2.198   0.573   2.835  0.0117 -3.3999 -0.5040
 3569SOL    HW210843   2.198   0.544   2.687 -0.0152  2.1066 -1.7864
 3570SOL     OW10844   2.587   0.598   3.555  0.0246  0.1535  0.1095
 3570SOL    HW110845   2.554   0.517   3.595  0.1637  0.4394  0.8117
 3570SOL    HW210846   2.649   0.633   3.618 -2.2763  2.4334  1.3175
 3571SOL     OW10847   2.759   4.533   0.937 -0.1234 -0.5926  0.0335
 3571SOL    HW110848   2.705   4.516   1.014 -1.1607  0.8919 -0.3299
 3571SOL    HW210849   2.849   4.524   0.968 -0.4371  1.8418  1.9524
 3572SOL     OW10850   4.531   2.988   4.401 -0.0434  0.2648 -0.6194
 3572SOL    HW110851   4.556   2.919   4.461 -0.0263  1.3656  0.6919
 3572SOL    HW210852   4.611   3.008   4.352 -0.1145 -0.7865 -1.1838
 3573SOL     OW10853   1.236   1.919   2.742 -0.0774 -0.1715  0.4891
 3573SOL    HW110854   1.179   1.943   2.815 -0.6502 -0.5835  0.1809
 3573SOL    HW210855   1.176   1.891   2.673  0.4941 -0.4949  0.1188
 3574SOL     OW10856   4.755   2.791   3.129  0.1339 -0.6656  0.2720
 3574SOL    HW110857   4.748   2.729   3.056 -0.7648 -0.4922  0.1880
 3574SOL    HW210858   4.668   2.832   3.133  0.3946 -0.1640  0.9898
 3575SOL     OW10859   0.124   2.498   0.082  0.0587 -0.0303 -0.1331
 3575SOL    HW110860   0.215   2.517   0.103 -0.2454  2.7911 -0.9516
 3575SOL    HW210861   0.127   2.455  -0.003  0.6916 -2.2308  0.9253
 3576SOL     OW10862   3.337   1.271   1.798 -0.1094  0.2603  0.2905
 3576SOL    HW110863   3.429   1.268   1.827  0.0888  2.6213  0.0889
 3576SOL    HW210864   3.288   1.240   1.874  0.8020 -0.4938  0.6050
 3577SOL     OW10865   0.391   2.806   4.475  0.7656 -0.5841  0.0482
 3577SOL    HW110866   0.359   2.807   4.385  0.3101  1.7979  0.1514
 3577SOL    HW210867   0.411   2.898   4.494  1.2733 -1.0879  2.2289
 3578SOL     OW10868   1.918   0.824   2.664  0.2860  0.4479 -0.4254
 3578SOL    HW110869   1.839   0.775   2.642  1.3744 -1.3524 -0.4552
 3578SOL    HW210870   1.929   0.886   2.592 -0.0603 -0.5676 -1.3629
 3579SOL     OW10871   1.264   0.834   2.519 -0.5976 -0.1218  0.7604
 3579SOL    HW110872   1.262   0.915   2.468  0.9770  0.2821  1.2992
 3579SOL    HW210873   1.273   0.764   2.453  0.6988  0.3373  0.4326
 3580SOL     OW10874   2.698   4.904   4.648 -0.0591  0.0477 -0.3195
 3580SOL    HW110875   2.607   4.891   4.620  0.8569 -0.0877 -3.7810
 3580SOL    HW210876   2.730   4.816   4.667 -0.7344  0.1492  1.4591
 3581SOL     OW10877   2.303   3.432   5.051 -0.2249  0.1178  0.0920
 3581SOL    HW110878   2.325   3.502   4.989  0.5188 -0.3910 -0.2364
 3581SOL    HW210879   2.312   3.351   5.000  1.6327 -0.4030  1.1455
 3582SOL     OW10880   3.255   1.606   4.918  0.3450  0.3629 -0.2010
 3582SOL    HW110881   3.203   1.652   4.984  0.1229  0.1500 -0.2247
 3582SOL    HW210882   3.278   1.673   4.853 -0.3324  0.3544 -0.4535
 3583SOL     OW10883   4.100   3.779   0.557  0.2709 -0.0506 -0.3011
 3583SOL    HW110884   4.158   3.853   0.571  0.4129 -0.2344  0.0950
 3583SOL    HW210885   4.152   3.703   0.584  0.5025 -0.4114 -1.6543
 3584SOL     OW10886   0.653   0.536   0.957 -0.5801 -0.4059 -0.5095
 3584SOL    HW110887   0.667   0.616   1.007  0.6788 -1.4860  0.9921
 3584SOL    HW210888   0.739   0.494   0.954 -1.2984 -1.9627 -0.7529
 3585SOL     OW10889   2.195   2.188   0.273 -0.6432  0.1749  0.6417
 3585SOL    HW110890   2.253   2.222   0.341 -0.6290  2.1580 -0.2735
 3585SOL    HW210891   2.107   2.202   0.307 -0.6208 -0.7729  1.1055
 3586SOL     OW10892   1.760   0.640   0.648  0.0333  0.1149 -0.1638
 3586SOL    HW110893   1.850   0.665   0.671  0.1256 -0.8139  0.5350
 3586SOL    HW210894   1.755   0.654   0.553  0.5577  1.2444 -0.0400
 3587SOL     OW10895   0.035   4.173   2.293  0.0138 -0.0171  0.6196
 3587SOL    HW110896   0.081   4.184   2.376 -2.7056  2.6744  1.9499
 3587SOL    HW210897   0.085   4.226   2.231  0.7124 -0.0834  1.1132
 3588SOL     OW10898   1.274   0.672   4.007 -0.3573  0.4012 -0.3104
 3588SOL    HW110899   1.337   0.620   4.057  0.6805 -0.3181 -2.2734
 3588SOL    HW210900   1.245   0.740   4.068  0.8138 -0.4437  1.2518
 3589SOL     OW10901   3.426   4.806   1.787 -0.0755 -0.6994  0.7127
 3589SOL    HW110902   3.351   4.832   1.840  1.2884  1.4981  1.7248
 3589SOL    HW210903   3.408   4.840   1.700 -0.7847 -1.2810  0.6257
 3590SOL     OW10904   4.266   0.771   1.436 -0.6076  0.2955  0.0173
 3590SOL    HW110905   4.249   0.714   1.361 -0.7090 -0.0709  0.3163
 3590SOL    HW210906   4.335   0.726   1.485  0.3951  1.1754 -0.5502
 3591SOL     OW10907   1.149   2.371   0.753  0.2727 -0.7984  0.0786
 3591SOL    HW110908   1.105   2.453   0.729  2.2048 -0.0171 -1.0456
 3591SOL    HW210909   1.200   2.348   0.675 -0.3999 -3.2426  0.2771
 3592SOL     OW10910   4.195   4.611   0.584  0.2376 -0.2029 -0.0817
 3592SOL    HW110911   4.124   4.648   0.636  1.5860  1.6144  0.5764
 3592SOL    HW210912   4.152   4.574   0.507 -1.4437  0.4447  0.5016
 3593SOL     OW10913   2.691   1.859   3.223  0.0736 -0.0442  0.2805
 3593SOL    HW110914   2.603   1.887   3.199 -0.1847  0.6866  1.9084
 3593SOL    HW210915   2.686   1.845   3.318  2.3487  2.6295  0.9057
 3594SOL     OW10916   3.664   1.710   2.959  0.1870  0.1794  0.0479
 3594SOL    HW110917   3.670   1.738   2.868  0.9852  0.7158  0.2527
 3594SOL    HW210918   3.572   1.721   2.982  0.1035  0.6586 -0.5012
 3595SOL     OW10919   2.580   3.305   3.323  0.0720 -0.4287  0.6119
 3595SOL    HW110920   2.625   3.322   3.241  1.6601  1.9087  1.8421
 3595SOL    HW210921   2.487   3.312   3.302  0.4332 -0.2871 -1.0305
 3596SOL     OW10922   2.483   1.189   4.113 -0.6331  0.6025 -0.4055
 3596SOL    HW110923   2.413   1.131   4.084 -0.0333 -1.8432  2.5379
 3596SOL    HW210924   2.560   1.132   4.122  0.9155  2.5526 -0.5654
 3597SOL     OW10925   1.108   4.331   3.782  0.6785  0.0053  0.5967
 3597SOL    HW110926   1.041   4.264   3.777 -0.1346  0.7531  1.1329
 3597SOL    HW210927   1.180   4.290   3.831  0.5897 -0.7700  0.0838
 3598SOL     OW10928   2.841   4.034   0.544  0.0195  0.2172  0.5902
 3598SOL    HW110929   2.822   3.956   0.595 -1.1390 -0.4667 -0.8260
 3598SOL    HW210930   2.933   4.024   0.517 -0.8306 -2.1317 -1.9055
 3599SOL     OW10931   1.501   3.568   0.221  0.1561 -0.6745 -0.2025
 3599SOL    HW110932   1.411   3.542   0.238 -0.2378  0.4354 -0.5659
 3599SOL    HW210933   1.509   3.655   0.260  0.8852 -0.4985 -0.7340
 3600SOL     OW10934   2.569   2.992   0.969 -0.6625 -0.2348  0.0833
 3600SOL    HW110935   2.517   2.923   0.928  0.2194  0.6012 -2.6195
 3600SOL    HW210936   2.578   3.059   0.902  2.4676  0.4123  0.9933
 3601SOL     OW10937   0.331   3.285   2.292 -0.0702  0.2786 -0.2096
 3601SOL    HW110938   0.264   3.257   2.229 -1.1441  1.2475  0.4707
 3601SOL    HW210939   0.302   3.249   2.376 -1.4471  3.1818  0.6784
 3602SOL     OW10940   2.847   1.818   4.050 -0.7021 -0.1850 -0.0131
 3602SOL    HW110941   2.941   1.812   4.070 -0.3618  1.3692 -1.0107
 3602SOL    HW210942   2.842   1.804   3.955 -1.3422  0.7574 -0.1330
 3603SOL     OW10943   3.006   1.629   1.636 -0.1551  0.3785  0.1825
 3603SOL    HW110944   3.080   1.579   1.670 -1.4563  0.2864  3.1737
 3603SOL    HW210945   3.019   1.718   1.671 -0.6546  0.7769 -0.6040
 3604SOL     OW10946   1.906   1.393   0.665 -0.4389 -0.3292 -0.8067
 3604SOL    HW110947   1.985   1.439   0.637 -0.5265  1.0670  1.0464
 3604SOL    HW210948   1.910   1.394   0.761 -0.8950 -3.5049 -0.6395
 3605SOL     OW10949   0.673   4.139   1.795 -0.4298  0.1463  0.2143
 3605SOL    HW110950   0.683   4.046   1.772 -2.7545  0.0643 -0.7678
 3605SOL    HW210951   0.677   4.141   1.890 -0.4499 -0.9911  0.2502
 3606SOL     OW10952   0.148   4.191   2.566  0.5320  0.3921  0.1390
 3606SOL    HW110953   0.100   4.172   2.646  0.4096  2.0318  0.4852
 3606SOL    HW210954   0.210   4.260   2.590  1.6630 -0.2468 -0.7919
 3607SOL     OW10955   4.258   2.420   4.232 -0.2066  0.4095 -0.2959
 3607SOL    HW110956   4.182   2.416   4.290 -0.5618  0.9911 -0.7044
 3607SOL    HW210957   4.224   2.393   4.146 -0.2290  1.7735 -0.7357
 3608SOL     OW10958   2.110   1.052   0.848  0.3051  0.7365 -0.1156
 3608SOL    HW110959   2.129   1.143   0.824 -0.3004  0.8522 -0.1624
 3608SOL    HW210960   2.192   1.020   0.885  0.0512  1.7982  1.4367
 3609SOL     OW10961   3.931   1.057   0.326 -0.7761  0.0080 -0.3793
 3609SOL    HW110962   3.956   1.115   0.397 -0.0986  0.2385 -0.7982
 3609SOL    HW210963   4.014   1.025   0.290 -1.0672 -3.1924  1.4007
 3610SOL     OW10964   1.993   3.343   1.488 -0.5877  0.5090 -0.2788
 3610SOL    HW110965   2.002   3.422   1.542 -1.5502  1.1263 -0.9958
 3610SOL    HW210966   1.949   3.280   1.545 -1.1453  0.9897 -0.1721
 3611SOL     OW10967   2.154   2.843   2.551 -0.1152  0.4691 -0.3148
 3611SOL    HW110968   2.105   2.919   2.585 -0.5271  0.1177 -0.1146
 3611SOL    HW210969   2.212   2.818   2.623  0.2078  0.7488 -0.4733
 3612SOL     OW10970   2.188   4.632   3.169 -0.8746 -0.4244 -0.4948
 3612SOL    HW110971   2.164   4.688   3.243 -1.7564  0.4637 -1.4110
 3612SOL    HW210972   2.196   4.544   3.207  1.4317  0.3960  1.1592
 3613SOL     OW10973   3.552   0.650   1.422  0.1712  0.0126 -0.2143
 3613SOL    HW110974   3.461   0.621   1.423  0.2944 -0.4747 -1.5130
 3613SOL    HW210975   3.603   0.571   1.443  0.3222  0.1494 -0.0610
 3614SOL     OW10976   0.620   2.136   3.457 -0.5294 -0.3768  0.0363
 3614SOL    HW110977   0.703   2.178   3.437  1.0481 -2.2920  2.1076
 3614SOL    HW210978   0.554   2.198   3.426  1.6267  2.1260  0.1105
 3615SOL     OW10979   1.787   4.218   3.978 -0.0260 -0.6401 -0.4354
 3615SOL    HW110980   1.872   4.177   3.960 -0.4975 -0.7461 -2.6628
 3615SOL    HW210981   1.727   4.144   3.987  0.4163 -0.7732  3.9678
 3616SOL     OW10982   4.913   3.752   0.441 -0.3297 -0.2870  0.2302
 3616SOL    HW110983   4.908   3.736   0.346 -0.0446  0.0282  0.1608
 3616SOL    HW210984   4.910   3.665   0.480  0.6640 -0.4897 -0.1198
 3617SOL     OW10985   2.983   0.352   4.803 -0.0990  0.7474  0.2479
 3617SOL    HW110986   3.028   0.436   4.811  2.4204 -0.6818  2.9913
 3617SOL    HW210987   2.890   0.374   4.806  0.4445  3.4408 -0.0407
 3618SOL     OW10988   4.770   0.229   1.378 -0.3831 -0.3592  0.3504
 3618SOL    HW110989   4.852   0.235   1.426 -0.0811 -1.0510 -0.0704
 3618SOL    HW210990   4.789   0.265   1.291 -0.5179 -0.5521  0.2399
 3619SOL     OW10991   1.225   1.287   0.805 -0.6094 -0.1901 -0.7670
 3619SOL    HW110992   1.244   1.375   0.837  0.3138 -0.9424  0.8729
 3619SOL    HW210993   1.153   1.256   0.859  0.0922 -0.9937 -0.2656
 3620SOL     OW10994   4.299   1.541   2.169 -0.4391  0.2279 -0.2042
 3620SOL    HW110995   4.286   1.475   2.237 -1.3823  0.6619  0.0501
 3620SOL    HW210996   4.368   1.598   2.203 -1.4723  0.9299  0.7836
 3621SOL     OW10997   3.300   4.424   2.155 -0.2349  0.2470  0.1755
 3621SOL    HW110998   3.216   4.385   2.131 -0.7428  0.7106  1.1568
 3621SOL    HW210999   3.296   4.513   2.120  0.6933 -0.3346 -1.5606
 3622SOL     OW11000   2.610   4.910   2.868  0.0581 -0.4923 -0.1905
 3622SOL    HW111001   2.522   4.889   2.900  0.1659  0.1196  0.5319
 3622SOL    HW211002   2.604   5.001   2.838  0.5902 -0.2532  0.4118
 3623SOL     OW11003   1.088   0.685   2.107 -0.4972  0.0555  0.1133
 3623SOL    HW111004   1.129   0.771   2.097 -2.1685  0.9376  0.4131
 3623SOL    HW211005   0.995   0.705   2.120 -0.9231 -1.8111  0.1478
 3624SOL     OW11006   3.430   2.437   1.161 -0.1797 -0.1297 -0.1943
 3624SOL    HW111007   3.458   2.417   1.250 -2.0390 -1.1563  0.2052
 3624SOL    HW211008   3.395   2.526   1.166 -0.4554 -0.2559  0.1340
 3625SOL     OW11009   0.194   1.402   1.349  0.2390  0.0051  0.1297
 3625SOL    HW111010   0.285   1.375   1.335  0.1591 -0.1358 -0.1198
 3625SOL    HW211011   0.150   1.382   1.266  0.3656  1.6733 -0.3861
 3626SOL     OW11012   4.311   1.253   3.523 -0.0218 -0.8014 -0.2705
 3626SOL    HW111013   4.235   1.227   3.471 -1.1524  0.8053  0.4966
 3626SOL    HW211014   4.273   1.292   3.602  1.6309 -2.2258  1.3104
 3627SOL     OW11015   5.036   1.078   3.968  0.2374  0.4687  0.7574
 3627SOL    HW111016   4.985   1.004   3.934  0.2085  1.7280 -2.2848
 3627SOL    HW211017   4.971   1.144   3.990  0.3710  0.7104  0.4395
 3628SOL     OW11018   4.839   0.085   2.244  0.0139 -0.2439  0.2866
 3628SOL    HW111019   4.775   0.130   2.188 -0.0609 -1.5296 -0.7309
 3628SOL    HW211020   4.877   0.154   2.298  0.2357  1.0989 -1.4980
 3629SOL     OW11021   4.433   1.031   0.433 -0.1550 -0.2529  0.4033
 3629SOL    HW111022   4.524   1.013   0.410 -0.8627 -0.2092 -2.9334
 3629SOL    HW211023   4.386   0.950   0.412 -1.5047  1.1766 -2.5758
 3630SOL     OW11024   4.500   2.975   3.406 -0.5646 -0.1012 -0.0311
 3630SOL    HW111025   4.416   2.929   3.403  0.1033 -1.4177  0.7474
 3630SOL    HW211026   4.511   2.999   3.498  0.2970 -0.7213  0.0435
 3631SOL     OW11027   0.043   4.613   2.364 -0.1787  0.5110  0.0996
 3631SOL    HW111028   0.118   4.634   2.419 -1.0730  1.5187  0.9677
 3631SOL    HW211029  -0.033   4.645   2.413 -1.2084 -0.7028 -0.6404
 3632SOL     OW11030   4.396   4.801   2.375 -0.6973  0.2838  0.1261
 3632SOL    HW111031   4.472   4.858   2.386 -2.7082  3.0151  0.9086
 3632SOL    HW211032   4.421   4.719   2.418  2.5039  0.2779 -1.4409
 3633SOL     OW11033   0.947   4.601   3.711 -0.2023  0.0593  0.4694
 3633SOL    HW111034   0.877   4.560   3.661  1.3711  0.1314 -1.9549
 3633SOL    HW211035   1.006   4.529   3.733 -0.4364  0.1676  1.4958
 3634SOL     OW11036   0.827   2.403   0.684  0.0160 -0.3958 -0.4945
 3634SOL    HW111037   0.794   2.462   0.616  1.3217 -0.1401 -0.9325
 3634SOL    HW211038   0.884   2.457   0.738  0.1124 -0.9319 -0.0424
 3635SOL     OW11039   0.838   0.156   4.032  0.2844 -0.2278 -0.1349
 3635SOL    HW111040   0.894   0.230   4.013 -1.2778  1.2570  0.7256
 3635SOL    HW211041   0.790   0.140   3.951  0.9616 -0.6328 -0.4648
 3636SOL     OW11042   0.737   0.728   3.825 -0.6266  0.3363 -0.2603
 3636SOL    HW111043   0.678   0.791   3.866 -1.5907 -0.4434 -0.4374
 3636SOL    HW211044   0.815   0.729   3.881 -1.5672 -0.0464  1.0888
 3637SOL     OW11045   3.519   4.305   3.445 -0.0244  0.3266 -0.0600
 3637SOL    HW111046   3.459   4.235   3.424 -0.0677  0.4884 -0.4796
 3637SOL    HW211047   3.464   4.382   3.457  0.1343  0.6082 -1.0264
 3638SOL     OW11048   2.801   1.212   3.019  0.3273 -0.5248 -0.4809
 3638SOL    HW111049   2.841   1.129   3.046 -0.8563 -0.4445  1.7435
 3638SOL    HW211050   2.717   1.186   2.982 -0.3262 -0.3424  0.8001
 3639SOL     OW11051   4.267   0.573   1.909  0.3403 -0.3704  0.4068
 3639SOL    HW111052   4.281   0.654   1.860 -0.7308 -1.2206 -1.4312
 3639SOL    HW211053   4.353   0.549   1.942  1.0451  0.4321 -0.7932
 3640SOL     OW11054   0.377   3.240   4.900 -0.7557  0.5847  0.2557
 3640SOL    HW111055   0.444   3.195   4.951  0.4147  1.7212 -0.2300
 3640SOL    HW211056   0.318   3.171   4.871  1.1436 -0.7218 -0.7131
 3641SOL     OW11057   3.391   4.083   3.742  0.8378 -0.2011  0.2541
 3641SOL    HW111058   3.436   4.030   3.676  0.2778 -2.4649  1.5850
 3641SOL    HW211059   3.453   4.152   3.763  1.4645 -0.0460 -1.8096
 3642SOL     OW11060   1.676   3.469   2.969  0.5283  0.5008 -0.5695
 3642SOL    HW111061   1.621   3.543   2.994  0.4399  0.5350 -0.8684
 3642SOL    HW211062   1.723   3.447   3.049 -2.2834 -1.6092  0.6964
 3643SOL     OW11063   1.106   1.103   1.767  0.0111  0.2744 -0.2971
 3643SOL    HW111064   1.046   1.174   1.743  0.2718  0.6973  0.2809
 3643SOL    HW211065   1.055   1.048   1.827 -0.4823 -0.5234 -1.4048
 3644SOL     OW11066   3.396   2.980   3.123  0.5816 -0.1042  0.0126
 3644SOL    HW111067   3.303   2.961   3.137  0.9823 -3.3630 -0.8876
 3644SOL    HW211068   3.406   2.982   3.027  1.2391  1.7592  0.0730
 3645SOL     OW11069   3.047   0.804   3.985  0.4635  0.3522  0.2286
 3645SOL    HW111070   3.021   0.731   3.929 -2.1415 -0.1015  1.8325
 3645SOL    HW211071   3.030   0.773   4.074  4.6052  0.9529  1.4354
 3646SOL     OW11072   4.876   3.471   0.987  0.4759  0.2466  0.2709
 3646SOL    HW111073   4.908   3.443   1.073 -0.5158 -2.4239 -0.1482
 3646SOL    HW211074   4.783   3.490   1.001 -0.1005 -1.7661 -0.4424
 3647SOL     OW11075   4.207   2.169   3.467 -0.1949  0.2831 -0.1203
 3647SOL    HW111076   4.182   2.251   3.510  1.2847 -0.4849  2.4712
 3647SOL    HW211077   4.295   2.186   3.432  0.4799 -0.3767  1.1746
 3648SOL     OW11078   5.046   3.056   1.427 -0.0996  0.0240 -0.0312
 3648SOL    HW111079   5.079   3.118   1.361 -0.4596  0.0001 -0.2364
 3648SOL    HW211080   4.966   3.021   1.389  0.4997 -1.1417 -0.2385
 3649SOL     OW11081   3.372   2.206   4.799 -0.0386  0.2026  0.1973
 3649SOL    HW111082   3.297   2.175   4.850  0.5392 -0.6673  0.5423
 3649SOL    HW211083   3.442   2.144   4.819  0.8420  1.1136  0.0433
 3650SOL     OW11084   3.555   0.284   0.129  0.1569  0.4573  0.3082
 3650SOL    HW111085   3.495   0.349   0.091  0.9084  0.8283 -0.2623
 3650SOL    HW211086   3.623   0.272   0.063  2.4989  2.4323  2.1754
 3651SOL     OW11087   4.760   1.257   2.780  0.1339 -0.0072 -0.0203
 3651SOL    HW111088   4.697   1.327   2.763  1.1742  0.7385 -0.9069
 3651SOL    HW211089   4.792   1.275   2.869  2.1472  2.1073 -1.0740
 3652SOL     OW11090   2.393   1.933   4.149 -0.5605  0.4478  0.3525
 3652SOL    HW111091   2.442   1.969   4.222  0.8629 -1.1145  0.2481
 3652SOL    HW211092   2.303   1.926   4.181 -0.2140  0.9878  1.4844
 3653SOL     OW11093   0.799   0.164   4.285 -0.0994  0.3993 -0.2896
 3653SOL    HW111094   0.824   0.160   4.192  0.8729 -1.3772  0.0132
 3653SOL    HW211095   0.801   0.073   4.315 -0.3171  0.9476  1.5160
 3654SOL     OW11096   4.552   1.215   2.413  0.4775 -0.0344 -0.4133
 3654SOL    HW111097   4.464   1.252   2.403  0.2000 -1.1521 -3.1510
 3654SOL    HW211098   4.608   1.272   2.359  0.5293 -1.8538 -2.4190
 3655SOL     OW11099   2.565   2.339   4.391  0.8624 -0.0240 -0.1113
 3655SOL    HW111100   2.537   2.423   4.426 -0.5839 -0.2868 -0.5804
 3655SOL    HW211101   2.659   2.349   4.377  0.8170  1.3035  0.3921
 3656SOL     OW11102   1.206   3.899   3.565 -0.1227  0.4159 -0.9152
 3656SOL    HW111103   1.292   3.886   3.604 -0.2597  0.3510 -0.6382
 3656SOL    HW211104   1.148   3.920   3.638  0.1390  3.0046 -1.3312
 3657SOL     OW11105   1.503   1.512   1.208  0.2838  0.4054 -0.4200
 3657SOL    HW111106   1.543   1.499   1.122  0.6301 -0.6019 -0.1257
 3657SOL    HW211107   1.533   1.598   1.236  0.2805  0.6827 -1.2452
 3658SOL     OW11108   3.249   0.893   3.203  0.5221 -0.0680 -0.2381
 3658SOL    HW111109   3.264   0.858   3.291  2.0925  0.4661 -0.2637
 3658SOL    HW211110   3.320   0.857   3.151  0.5513  0.9398 -0.9087
 3659SOL     OW11111   1.500   1.768   2.442 -0.2148  0.0840 -0.5208
 3659SOL    HW111112   1.549   1.694   2.478  0.9821  0.7377 -0.7558
 3659SOL    HW211113   1.418   1.730   2.412  0.3062 -1.1199 -0.4759
 3660SOL     OW11114   4.284   0.937   1.115  0.6359  0.3503 -0.9280
 3660SOL    HW111115   4.364   0.897   1.148 -1.3639 -0.6361  3.3698
 3660SOL    HW211116   4.223   0.864   1.107 -1.2209  1.6193  0.7765
 3661SOL     OW11117   4.866   3.843   3.952 -0.1803 -0.1931  0.2523
 3661SOL    HW111118   4.792   3.887   3.911 -0.0361 -0.2107 -0.0281
 3661SOL    HW211119   4.826   3.785   4.017 -0.4485 -0.6198 -0.2843
 3662SOL     OW11120   0.925   3.543   1.562  0.6519 -0.8042 -0.3554
 3662SOL    HW111121   0.914   3.553   1.467  0.0400 -1.0857 -0.3162
 3662SOL    HW211122   0.836   3.535   1.596  0.7144  1.3335  0.4808
 3663SOL     OW11123   0.439   3.386   4.317 -0.3330 -0.0868 -0.3637
 3663SOL    HW111124   0.347   3.377   4.292 -0.9127  2.0102  0.7496
 3663SOL    HW211125   0.453   3.481   4.320  2.3356 -0.3253 -2.0812
 3664SOL     OW11126   0.569   2.866   4.944 -0.2019  0.0619  0.6196
 3664SOL    HW111127   0.663   2.871   4.962  0.1917  1.9906 -1.4977
 3664SOL    HW211128   0.535   2.951   4.972 -0.7535  0.4581 -1.0922
 3665SOL     OW11129   1.127   4.206   2.576  0.3429  0.5148  0.0724
 3665SOL    HW111130   1.153   4.288   2.619  1.4708  0.9857 -1.4311
 3665SOL    HW211131   1.180   4.139   2.619  1.4985  0.9893 -0.5640
 3666SOL     OW11132   4.187   3.228   0.085 -0.5223  0.7482  0.0074
 3666SOL    HW111133   4.207   3.176   0.007  1.7814 -0.4595  1.2760
 3666SOL    HW211134   4.262   3.287   0.094 -1.5746  2.0729  0.3966
 3667SOL     OW11135   4.168   4.284   4.891 -0.4562 -0.1930 -0.0275
 3667SOL    HW111136   4.248   4.335   4.883 -0.7589  0.3033  0.0713
 3667SOL    HW211137   4.112   4.317   4.820 -0.3990 -0.8637 -0.3937
 3668SOL     OW11138   4.138   2.590   3.304  0.0219 -0.4736  0.3509
 3668SOL    HW111139   4.096   2.612   3.221 -0.7195 -0.1796  0.7853
 3668SOL    HW211140   4.177   2.672   3.334 -0.7783 -0.2609  0.8711
 3669SOL     OW11141   1.402   1.215   1.816  0.8080 -0.2391 -0.3206
 3669SOL    HW111142   1.393   1.143   1.878  2.4360 -1.7529 -1.7272
 3669SOL    HW211143   1.338   1.280   1.845  0.1967 -1.6792  1.7762
 3670SOL     OW11144   1.694   4.203   4.919  1.0347  0.0698 -0.1592
 3670SOL    HW111145   1.659   4.114   4.918  2.7379 -0.6294  0.3140
 3670SOL    HW211146   1.648   4.247   4.847  0.2034 -1.1876 -0.4258
 3671SOL     OW11147   0.336   4.399   1.230 -0.1406  0.3946 -0.0060
 3671SOL    HW111148   0.275   4.325   1.234  0.2178  0.1158  4.0609
 3671SOL    HW211149   0.419   4.363   1.261  0.6042  2.0579  0.0433
 3672SOL     OW11150   2.395   0.251   4.912  0.8485  0.3032  0.8724
 3672SOL    HW111151   2.368   0.266   5.003 -0.8181 -1.8625  0.8069
 3672SOL    HW211152   2.451   0.174   4.915 -1.3628 -1.4480 -0.1601
 3673SOL     OW11153   3.758   0.092   4.193  0.0677  0.5328  0.9402
 3673SOL    HW111154   3.801   0.086   4.108  1.5194  0.3694  1.6470
 3673SOL    HW211155   3.674   0.049   4.181  0.2423  0.5218 -0.4040
 3674SOL     OW11156   4.852   0.821   1.256 -0.5818  0.5165  0.3101
 3674SOL    HW111157   4.810   0.895   1.212 -0.1587  0.4259 -0.2510
 3674SOL    HW211158   4.908   0.783   1.190 -0.2963  0.0887  0.7968
 3675SOL     OW11159   2.816   1.231   4.171  0.6277 -0.0190  0.5165
 3675SOL    HW111160   2.891   1.171   4.168  0.4062 -0.2326 -1.4379
 3675SOL    HW211161   2.802   1.257   4.081 -0.1739  1.9087  1.1499
 3676SOL     OW11162   0.481   2.812   0.297 -0.3168 -0.4093 -0.4656
 3676SOL    HW111163   0.392   2.776   0.296 -0.6920  0.4111  0.8416
 3676SOL    HW211164   0.484   2.864   0.377  0.5519  1.5527 -1.7044
 3677SOL     OW11165   1.939   2.237   0.265  0.0248  0.0724 -0.2885
 3677SOL    HW111166   1.920   2.180   0.190 -2.6685 -0.2755  0.5482
 3677SOL    HW211167   1.900   2.321   0.241 -0.3125  0.1351  0.4517
 3678SOL     OW11168   3.627   2.503   4.445 -0.8176 -0.1440 -0.2145
 3678SOL    HW111169   3.634   2.477   4.537 -0.4449 -0.6521 -0.3836
 3678SOL    HW211170   3.551   2.561   4.442 -0.9674 -0.3069  0.3733
 3679SOL     OW11171   2.029   2.205   1.291 -0.3696  0.3292  0.2636
 3679SOL    HW111172   1.992   2.177   1.374 -1.2335  1.0367  0.1334
 3679SOL    HW211173   2.117   2.236   1.313  0.0241 -1.0024  0.6406
 3680SOL     OW11174   1.520   3.369   4.342  0.3124 -0.2150 -0.4793
 3680SOL    HW111175   1.517   3.464   4.327  2.5737  0.2762  1.5502
 3680SOL    HW211176   1.609   3.344   4.315  0.3245 -1.4232  0.5980
 3681SOL     OW11177   1.288   0.718   1.293  0.4075 -0.0376  0.8160
 3681SOL    HW111178   1.315   0.633   1.259 -1.4192 -0.4070  0.1586
 3681SOL    HW211179   1.355   0.779   1.262  2.2555 -1.3461  2.0980
 3682SOL     OW11180   2.202   0.942   2.886 -0.3780  0.3688  0.2435
 3682SOL    HW111181   2.116   0.902   2.893  0.2358 -1.0978 -0.2945
 3682SOL    HW211182   2.202   1.011   2.953 -0.7215 -1.9447  2.7903
 3683SOL     OW11183   1.578   4.298   2.679  0.2994  1.4240 -0.0710
 3683SOL    HW111184   1.663   4.254   2.686  1.9021  3.9957 -1.5354
 3683SOL    HW211185   1.544   4.271   2.594  0.4601  1.6326 -0.2048
 3684SOL     OW11186   0.067   4.979   2.403  0.1016  0.3061  0.3236
 3684SOL    HW111187   0.103   4.943   2.322  2.8194 -0.0797  1.5826
 3684SOL    HW211188  -0.028   4.975   2.392  0.3627 -2.1663 -1.7770
 3685SOL     OW11189   0.664   4.736   1.743 -0.1911  0.1453 -0.1454
 3685SOL    HW111190   0.651   4.715   1.650  2.3516 -2.0825 -0.0953
 3685SOL    HW211191   0.651   4.653   1.789  1.0674  0.6502  1.1893
 3686SOL     OW11192   0.067   2.351   2.218 -0.1396  0.5610  0.3173
 3686SOL    HW111193   0.018   2.273   2.244 -2.1283  1.4688 -0.4603
 3686SOL    HW211194   0.065   2.349   2.122  1.5231  0.5719  0.2531
 3687SOL     OW11195   3.260   4.271   4.130 -0.2534  0.0966  0.1235
 3687SOL    HW111196   3.278   4.189   4.085 -1.5707  0.0440 -0.3470
 3687SOL    HW211197   3.338   4.324   4.116  0.5277 -0.9820  0.2527
 3688SOL     OW11198   2.725   4.228   1.050 -0.0203 -0.4454  0.3458
 3688SOL    HW111199   2.751   4.221   0.958 -2.3393 -0.8778 -0.3383
 3688SOL    HW211200   2.801   4.266   1.093  1.2238 -0.4459 -1.6984
 3689SOL     OW11201   1.146   1.004   0.683  0.5522 -0.0837 -0.2556
 3689SOL    HW111202   1.182   1.068   0.745 -0.7875  0.6535 -0.1885
 3689SOL    HW211203   1.088   0.949   0.736 -1.4633  1.2400 -0.9730
 3690SOL     OW11204   4.622   0.859   5.028  0.0027  0.0775  0.0749
 3690SOL    HW111205   4.559   0.795   5.063 -2.1272  1.0255 -1.7729
 3690SOL    HW211206   4.569   0.917   4.973  2.0826  2.6604  0.6263
 3691SOL     OW11207   3.078   3.697   0.185 -0.4480  0.3534 -0.4392
 3691SOL    HW111208   3.094   3.780   0.230 -1.1490  1.1633 -1.6241
 3691SOL    HW211209   3.162   3.677   0.142  1.0554 -1.7263  3.1017
 3692SOL     OW11210   4.775   2.166   1.847 -0.8993 -0.1266 -0.2534
 3692SOL    HW111211   4.772   2.202   1.758  0.1750 -0.9857 -0.6671
 3692SOL    HW211212   4.725   2.228   1.900  0.2819  1.5974 -1.0493
 3693SOL     OW11213   1.125   0.145   2.055  0.3794 -0.6598 -0.0920
 3693SOL    HW111214   1.038   0.114   2.080  1.0125 -1.8371  0.7531
 3693SOL    HW211215   1.125   0.238   2.080  0.1700 -1.2068  2.1893
 3694SOL     OW11216   1.382   4.199   0.038  0.9160  0.0290  0.2025
 3694SOL    HW111217   1.381   4.127  -0.025  0.9074 -1.0799  1.4217
 3694SOL    HW211218   1.331   4.268  -0.003  0.2559 -0.9525 -0.6722
 3695SOL     OW11219   0.041   4.487   3.884 -0.4445  0.3995  0.9309
 3695SOL    HW111220   0.006   4.418   3.827  0.7445 -0.6653  1.4490
 3695SOL    HW211221  -0.022   4.493   3.956 -2.3065  2.1881 -0.6878
 3696SOL     OW11222   4.595   3.249   1.756 -0.3862  0.3142 -0.0629
 3696SOL    HW111223   4.654   3.206   1.817 -1.3053 -1.3940 -0.2891
 3696SOL    HW211224   4.558   3.323   1.804 -2.1766 -1.7966  2.0398
 3697SOL     OW11225   2.166   4.302   4.581  0.1403  0.1303  0.4333
 3697SOL    HW111226   2.242   4.359   4.580 -0.1394  0.5029 -1.2151
 3697SOL    HW211227   2.094   4.358   4.611 -0.0129  0.4912 -0.5982
 3698SOL     OW11228   2.842   3.031   1.059 -0.0053  0.2515  0.5038
 3698SOL    HW111229   2.860   3.055   0.968 -0.6201 -1.1008 -0.0053
 3698SOL    HW211230   2.747   3.022   1.063  0.0989 -0.7348  0.9890
 3699SOL     OW11231   4.859   4.634   0.784 -0.3089 -0.2453 -0.0439
 3699SOL    HW111232   4.789   4.583   0.742  1.4080 -3.1414  0.3301
 3699SOL    HW211233   4.924   4.648   0.716  0.6651 -1.4300  0.5954
 3700SOL     OW11234   0.635   1.605   1.339  0.1149  0.3358  0.0179
 3700SOL    HW111235   0.603   1.693   1.360  1.1790  0.3991  1.5073
 3700SOL    HW211236   0.642   1.605   1.243 -1.2582  1.3656 -0.1178
 3701SOL     OW11237   3.362   0.948   4.295 -0.0967 -0.1105  0.4873
 3701SOL    HW111238   3.435   0.947   4.357  1.4878  1.2428 -1.2375
 3701SOL    HW211239   3.357   0.859   4.261 -2.0430 -1.3653  3.5350
 3702SOL     OW11240   4.527   2.543   2.304 -0.3823 -0.3531  0.4820
 3702SOL    HW111241   4.483   2.542   2.388 -0.8697  1.5116  0.2832
 3702SOL    HW211242   4.587   2.468   2.308 -2.1127 -1.7558  1.5078
 3703SOL     OW11243   1.643   4.998   3.181 -0.2854  0.2664  0.0842
 3703SOL    HW111244   1.694   4.983   3.260 -0.3375  1.1133  0.2886
 3703SOL    HW211245   1.672   4.930   3.120  0.1603 -0.0410  0.6315
 3704SOL     OW11246   2.355   0.387   0.904  0.0747 -0.4898 -0.5420
 3704SOL    HW111247   2.366   0.466   0.851  0.9632 -0.3884 -0.2242
 3704SOL    HW211248   2.364   0.314   0.842  0.6729 -0.3652 -0.6045
 3705SOL     OW11249   0.643   1.766   2.571  0.0239  0.5756  0.1686
 3705SOL    HW111250   0.726   1.720   2.562  0.0657  0.4301  1.1437
 3705SOL    HW211251   0.648   1.808   2.657 -1.8094 -1.3809  1.3649
 3706SOL     OW11252   0.154   2.574   1.888 -0.5647  0.2540  0.5784
 3706SOL    HW111253   0.171   2.606   1.799  1.1172 -0.6878  0.5161
 3706SOL    HW211254   0.105   2.644   1.930  1.4009  2.1309 -0.0995
 3707SOL     OW11255   2.214   2.895   0.191  0.0792 -0.0184 -0.2866
 3707SOL    HW111256   2.209   2.950   0.113  2.3286 -0.2771 -0.6736
 3707SOL    HW211257   2.213   2.957   0.264 -0.2935  0.3322 -0.5834
 3708SOL     OW11258   0.669   4.927   2.013 -0.1676  0.2064  0.1452
 3708SOL    HW111259   0.596   4.938   1.951  0.5519  0.1163 -0.7386
 3708SOL    HW211260   0.740   4.892   1.960 -0.6106 -3.4916  1.6904
 3709SOL     OW11261   1.210   4.432   0.602  0.2362 -0.1248 -0.1750
 3709SOL    HW111262   1.217   4.368   0.673 -0.8285  0.7655  0.7744
 3709SOL    HW211263   1.291   4.483   0.607  0.9679 -1.2008 -0.7665
 3710SOL     OW11264   4.973   2.660   2.444  0.3964  0.2315  0.6576
 3710SOL    HW111265   5.001   2.685   2.532  1.7653 -1.7836  0.8692
 3710SOL    HW211266   5.040   2.698   2.386 -0.7714  1.9812  0.3769
 3711SOL     OW11267   1.800   2.021   3.540  0.0706 -0.3488 -0.2883
 3711SOL    HW111268   1.830   1.962   3.608 -1.3332 -0.1103  0.5841
 3711SOL    HW211269   1.705   2.027   3.554 -0.3376 -0.6616 -2.5436
 3712SOL     OW11270   3.579   0.881   2.684 -0.2917  0.1894 -0.4662
 3712SOL    HW111271   3.646   0.949   2.682 -1.0581  0.9478 -1.4850
 3712SOL    HW211272   3.596   0.828   2.606 -0.4149 -0.0838 -0.3108
 3713SOL     OW11273   2.225   2.620   1.500  0.2173  0.0487  0.1788
 3713SOL    HW111274   2.306   2.587   1.540  0.4326  0.7913  0.3675
 3713SOL    HW211275   2.171   2.645   1.574 -0.1517 -0.3436  0.0475
 3714SOL     OW11276   4.044   4.568   3.813 -0.1947  0.3843 -0.0702
 3714SOL    HW111277   4.057   4.549   3.906  1.0181  1.7388  0.0689
 3714SOL    HW211278   4.129   4.601   3.783 -0.0238 -1.6168 -2.0931
 3715SOL     OW11279   3.503   2.760   0.091  0.0993  0.3609 -0.2144
 3715SOL    HW111280   3.584   2.790   0.131 -0.1831  1.8855 -0.6813
 3715SOL    HW211281   3.448   2.733   0.164  0.5928  0.4787  0.2041
 3716SOL     OW11282   0.993   0.363   0.327 -0.7525  0.4729 -0.1329
 3716SOL    HW111283   0.986   0.455   0.302  0.5435  0.6944  0.2707
 3716SOL    HW211284   1.087   0.344   0.323 -1.0052 -0.8426 -0.2312
 3717SOL     OW11285   3.784   2.661   3.338  0.3399  1.0360  0.5851
 3717SOL    HW111286   3.689   2.655   3.350  0.3115  1.1808  0.4340
 3717SOL    HW211287   3.814   2.570   3.343  0.0603  0.8734 -0.4186
 3718SOL     OW11288   2.185   0.352   2.950 -0.1903 -0.2132  0.4399
 3718SOL    HW111289   2.257   0.302   2.987  0.2190 -1.8115 -2.2432
 3718SOL    HW211290   2.143   0.292   2.889 -0.8540  2.1015 -1.5552
 3719SOL     OW11291   1.289   4.789   2.015 -0.3027 -0.1048  0.4701
 3719SOL    HW111292   1.316   4.698   2.033 -1.2835 -0.4082  0.4674
 3719SOL    HW211293   1.370   4.839   2.018  0.3297 -1.0748 -0.0881
 3720SOL     OW11294   1.033   3.467   4.391  0.4005 -0.3741 -0.2990
 3720SOL    HW111295   1.116   3.422   4.378  0.0451 -0.6427 -1.8809
 3720SOL    HW211296   0.968   3.408   4.353 -0.3603  0.3520 -0.1372
 3721SOL     OW11297   3.335   4.728   2.813 -0.5783  0.2155 -0.1508
 3721SOL    HW111298   3.251   4.701   2.850 -0.8183  1.2689  0.1176
 3721SOL    HW211299   3.382   4.767   2.886  0.3517 -0.7950 -0.1938
 3722SOL     OW11300   0.709   1.912   3.109 -0.0817 -0.3782  0.0204
 3722SOL    HW111301   0.670   1.918   3.022 -0.4559 -0.3146  0.1883
 3722SOL    HW211302   0.634   1.899   3.168 -0.0971  1.8853  0.5982
 3723SOL     OW11303   1.146   4.927   3.462  0.0627 -0.0463  0.5151
 3723SOL    HW111304   1.088   4.855   3.437 -0.1252  0.0070  0.7968
 3723SOL    HW211305   1.091   4.987   3.511 -0.3655  1.4638 -1.6773
 3724SOL     OW11306   3.252   2.031   3.201 -0.1273  0.0582  0.0015
 3724SOL    HW111307   3.273   2.097   3.267 -1.5162  1.1116 -0.5602
 3724SOL    HW211308   3.157   2.021   3.206  0.0377 -1.8847  0.0245
 3725SOL     OW11309   0.671   1.512   0.501  0.2546  0.1751  0.5584
 3725SOL    HW111310   0.623   1.588   0.469  2.0203  1.8651  1.6849
 3725SOL    HW211311   0.743   1.549   0.553  0.0680 -2.3095  2.7888
 3726SOL     OW11312   3.374   1.828   0.395  0.9581  0.7585  0.0256
 3726SOL    HW111313   3.455   1.880   0.394  1.0542  0.6623 -2.3600
 3726SOL    HW211314   3.310   1.886   0.436  1.4475  2.1908 -1.1329
 3727SOL     OW11315   0.463   1.407   1.379  0.2643  0.4340 -0.0385
 3727SOL    HW111316   0.515   1.483   1.352  1.3116 -0.0852  0.4526
 3727SOL    HW211317   0.520   1.360   1.440 -0.3179 -0.8104 -0.4253
 3728SOL     OW11318   0.260   3.874   3.757  0.0979  0.4029  0.2273
 3728SOL    HW111319   0.351   3.845   3.762 -0.3079 -0.7060  2.2779
 3728SOL    HW211320   0.253   3.945   3.820 -0.7109 -0.3518  1.0257
 3729SOL     OW11321   4.014   0.419   0.610 -0.3039  0.1378  0.2026
 3729SOL    HW111322   3.968   0.366   0.544 -0.8616 -2.0539  2.2042
 3729SOL    HW211323   3.980   0.387   0.694  2.1215  1.1154  1.6556
 3730SOL     OW11324   3.443   1.570   0.446 -0.6579  0.0087 -0.8017
 3730SOL    HW111325   3.389   1.649   0.442 -0.0554  0.4799 -0.0425
 3730SOL    HW211326   3.532   1.602   0.429 -0.1821 -0.2396  0.9918
 3731SOL     OW11327   0.058   4.592   4.461 -0.9182 -0.1875 -0.1287
 3731SOL    HW111328   0.063   4.557   4.373 -0.3077  1.0565 -0.6166
 3731SOL    HW211329  -0.012   4.657   4.458  0.4040  1.3086 -0.2770
 3732SOL     OW11330   1.104   2.443   1.199 -0.7347  0.2010 -0.7236
 3732SOL    HW111331   1.018   2.439   1.158 -0.6695 -2.3605 -0.7704
 3732SOL    HW211332   1.165   2.435   1.125 -0.5260  0.0467 -0.5361
 3733SOL     OW11333   4.835   1.021   0.111  0.3236  0.3567  0.0745
 3733SOL    HW111334   4.848   1.109   0.075 -2.1928  0.9429  0.4157
 3733SOL    HW211335   4.780   0.977   0.047  0.5334 -0.5483  0.5037
 3734SOL     OW11336   3.874   2.581   4.133 -0.0094 -1.1638 -0.6488
 3734SOL    HW111337   3.841   2.500   4.094 -1.2838 -0.6765 -0.6316
 3734SOL    HW211338   3.901   2.556   4.221  2.0848 -2.0947 -1.5013
 3735SOL     OW11339   3.485   3.358   2.996 -0.0977  0.0547  0.2878
 3735SOL    HW111340   3.395   3.346   3.027 -1.6857 -1.0915 -3.9649
 3735SOL    HW211341   3.527   3.273   3.009 -1.2093 -0.8765 -1.7064
 3736SOL     OW11342   4.922   3.413   1.521  0.1247  0.3492 -0.2878
 3736SOL    HW111343   4.844   3.360   1.505 -0.0538  0.7856 -0.9069
 3736SOL    HW211344   4.929   3.468   1.443  0.4231  1.0796  0.2493
 3737SOL     OW11345   3.485   4.378   4.382  0.0813  0.0918 -0.5495
 3737SOL    HW111346   3.462   4.368   4.290 -0.7325 -3.0221 -0.1423
 3737SOL    HW211347   3.577   4.351   4.386 -0.6815 -2.8309 -0.1688
 3738SOL     OW11348   2.579   1.522   2.879 -0.2855  0.4089  0.7248
 3738SOL    HW111349   2.543   1.450   2.931  1.6891  1.3383  3.5942
 3738SOL    HW211350   2.554   1.601   2.926 -1.1797  1.5908 -1.5937
 3739SOL     OW11351   0.437   0.197   1.014 -0.4389 -0.4307 -0.1702
 3739SOL    HW111352   0.379   0.140   0.964 -1.1052  0.2165 -0.1616
 3739SOL    HW211353   0.440   0.278   0.963 -1.0409  0.1981  0.7723
 3740SOL     OW11354   4.092   0.052   0.747 -0.0620  0.0196  0.3077
 3740SOL    HW111355   4.170   0.010   0.783  0.2001  0.3757  0.1503
 3740SOL    HW211356   4.025   0.041   0.815  0.1883 -0.0707  0.5385
 3741SOL     OW11357   0.914   2.771   1.398 -0.4497 -0.4630  0.1443
 3741SOL    HW111358   1.003   2.768   1.433 -0.3474  0.8338  0.0365
 3741SOL    HW211359   0.862   2.720   1.461  0.0183  0.5095  1.3667
 3742SOL     OW11360   2.910   2.893   1.577  0.3911  0.3392  0.1471
 3742SOL    HW111361   2.883   2.904   1.669  1.9602  0.7472  0.5910
 3742SOL    HW211362   2.955   2.974   1.555  0.2051  0.1608 -0.9362
 3743SOL     OW11363   1.287   3.223   1.012 -0.4843  0.3064  0.0905
 3743SOL    HW111364   1.327   3.186   1.090 -0.2680 -1.0870 -0.6609
 3743SOL    HW211365   1.335   3.305   0.997  0.3801 -0.0896  0.6357
 3744SOL     OW11366   4.651   3.398   3.945 -0.2777  0.2327 -0.8978
 3744SOL    HW111367   4.664   3.486   3.980 -1.6403  1.1532 -2.5447
 3744SOL    HW211368   4.590   3.410   3.872 -0.1780 -2.0329 -1.4298
 3745SOL     OW11369   3.793   1.503   3.273  0.5627  0.5153 -0.3261
 3745SOL    HW111370   3.701   1.527   3.285  0.1200 -1.5423  0.8900
 3745SOL    HW211371   3.842   1.574   3.317 -0.4819  1.1110 -0.0953
 3746SOL     OW11372   4.545   4.815   3.553 -0.3154 -0.8271  0.3093
 3746SOL    HW111373   4.576   4.753   3.487  1.4323 -1.4578  1.6455
 3746SOL    HW211374   4.533   4.897   3.505  0.2137 -1.4455 -0.9238
 3747SOL     OW11375   3.280   4.035   4.012  0.0530  0.2986  0.2969
 3747SOL    HW111376   3.267   4.050   3.919  1.6433 -0.2486 -0.0476
 3747SOL    HW211377   3.294   3.941   4.020  1.0421  0.4788  0.9119
 3748SOL     OW11378   3.757   0.778   1.298  0.1433 -0.0235  0.1146
 3748SOL    HW111379   3.790   0.758   1.211  0.1454 -1.5150  0.4169
 3748SOL    HW211380   3.666   0.748   1.297 -0.4228  1.6202  0.0903
 3749SOL     OW11381   0.200   3.983   0.989  0.3761 -0.5338  0.3446
 3749SOL    HW111382   0.111   3.962   0.960  0.2971  0.6283 -0.3095
 3749SOL    HW211383   0.256   3.922   0.939  0.1652  0.8093 -1.6720
 3750SOL     OW11384   1.125   2.009   2.979  0.5202  0.6861  0.1528
 3750SOL    HW111385   1.049   2.034   3.033  1.0369  1.0054  0.7487
 3750SOL    HW211386   1.187   1.973   3.042  0.3400 -0.8428 -0.5095
 3751SOL     OW11387   4.296   3.298   2.930 -0.2240  0.4871 -0.2728
 3751SOL    HW111388   4.360   3.233   2.958  0.0033  0.7368 -0.2121
 3751SOL    HW211389   4.320   3.378   2.977 -2.2579 -0.1054  2.0285
 3752SOL     OW11390   2.525   1.321   1.361 -0.3071  0.0782  0.1484
 3752SOL    HW111391   2.442   1.278   1.384 -0.1032  0.1980  1.1602
 3752SOL    HW211392   2.509   1.414   1.376 -0.2461  0.1925 -0.4797
 3753SOL     OW11393   4.498   4.276   3.930  0.2090  0.4308 -0.2006
 3753SOL    HW111394   4.574   4.324   3.897 -1.5507  2.2139 -2.0143
 3753SOL    HW211395   4.465   4.228   3.853 -0.4127 -0.4459  0.5844
 3754SOL     OW11396   4.290   0.244   0.048 -0.0269 -0.0943 -0.0399
 3754SOL    HW111397   4.352   0.174   0.028  0.0836  0.4171 -1.5595
 3754SOL    HW211398   4.314   0.316  -0.010 -1.1302  0.6429  0.3751
 3755SOL     OW11399   4.532   1.726   0.864 -0.4701  0.1293  0.6883
 3755SOL    HW111400   4.488   1.671   0.929 -0.2628 -0.5878  0.2304
 3755SOL    HW211401   4.544   1.669   0.788  0.4423  0.5782  0.4831
 3756SOL     OW11402   0.280   1.060   0.528  0.0416 -0.0004 -0.5484
 3756SOL    HW111403   0.334   1.138   0.518  0.4129 -0.1539  0.1651
 3756SOL    HW211404   0.190   1.093   0.527  0.2098  0.7170  1.5856
 3757SOL     OW11405   4.669   1.810   4.933 -0.1206 -0.8453  0.2885
 3757SOL    HW111406   4.740   1.858   4.890 -0.5716 -0.1254  0.3356
 3757SOL    HW211407   4.713   1.741   4.983  0.5389 -0.4014  0.3240
 3758SOL     OW11408   0.612   1.335   1.637  0.4741 -0.3775  0.6110
 3758SOL    HW111409   0.646   1.401   1.698 -1.6445  0.8351  0.5665
 3758SOL    HW211410   0.535   1.300   1.680  0.6775 -1.7212 -0.0813
 3759SOL     OW11411   2.008   1.342   4.098  0.1496  1.0437 -0.1549
 3759SOL    HW111412   1.918   1.323   4.073  0.7038 -2.1191 -0.1451
 3759SOL    HW211413   2.002   1.421   4.152 -2.7133  0.5213  0.4579
 3760SOL     OW11414   2.001   2.799   1.974 -0.0423 -0.3186 -0.0701
 3760SOL    HW111415   2.091   2.801   2.006  0.5658  0.8572 -1.7531
 3760SOL    HW211416   1.971   2.889   1.979 -1.1312 -0.6821  0.4082
 3761SOL     OW11417   3.093   1.428   4.782  0.4453  0.1641  0.0031
 3761SOL    HW111418   3.127   1.485   4.851 -0.9611  0.8609  0.1641
 3761SOL    HW211419   3.013   1.472   4.753  0.3855 -0.7419 -1.2444
 3762SOL     OW11420   0.628   0.809   1.045 -0.0049  0.4170  0.0897
 3762SOL    HW111421   0.622   0.882   1.107 -1.9620  0.6871 -0.3765
 3762SOL    HW211422   0.556   0.823   0.984  0.1255 -1.4313 -0.5377
 3763SOL     OW11423   0.154   4.147   4.253  0.1138  0.3474  0.1348
 3763SOL    HW111424   0.104   4.079   4.207 -1.7030  1.9122 -0.3051
 3763SOL    HW211425   0.176   4.211   4.185  0.2825  1.0700  0.8534
 3764SOL     OW11426   2.844   0.996   5.035  0.6350  0.2244  0.1085
 3764SOL    HW111427   2.868   0.986   4.943  0.5412  1.3732 -0.0638
 3764SOL    HW211428   2.748   1.003   5.034  0.1538 -3.8945  0.7442
 3765SOL     OW11429   3.622   2.862   2.215  0.5470 -0.0020  0.3327
 3765SOL    HW111430   3.622   2.766   2.221 -1.0513 -0.2941 -2.3501
 3765SOL    HW211431   3.530   2.886   2.230  0.5069  0.8609 -1.1304
 3766SOL     OW11432   2.090   4.407   2.228  0.7220 -0.0831 -0.0111
 3766SOL    HW111433   2.039   4.330   2.205 -2.0672  1.6174 -0.0268
 3766SOL    HW211434   2.114   4.393   2.320 -0.5341 -0.6085  0.2579
 3767SOL     OW11435   2.073   0.132   3.253 -0.1026  0.0645 -0.2781
 3767SOL    HW111436   2.115   0.129   3.167  1.6171 -1.3994  0.5379
 3767SOL    HW211437   1.979   0.124   3.235  0.3218 -1.9822 -1.9775
 3768SOL     OW11438   3.662   3.708   1.519  0.0354 -0.1215  0.2809
 3768SOL    HW111439   3.712   3.789   1.525  1.1922 -0.8449  0.5341
 3768SOL    HW211440   3.639   3.701   1.426  1.2375 -0.2655 -0.0220
 3769SOL     OW11441   3.209   1.895   2.896 -0.1731  0.3507 -0.1453
 3769SOL    HW111442   3.147   1.924   2.829  1.5649  0.1540 -1.9428
 3769SOL    HW211443   3.239   1.976   2.937  0.1455  0.6346 -0.9258
 3770SOL     OW11444   4.746   0.609   1.011  0.7838  0.2638  0.4511
 3770SOL    HW111445   4.710   0.652   0.933  0.0624  0.8078  1.0755
 3770SOL    HW211446   4.836   0.642   1.017  0.9518 -0.0243 -0.3164
 3771SOL     OW11447   1.580   4.079   1.827 -0.0623  0.0702  0.5520
 3771SOL    HW111448   1.558   4.059   1.918  0.5410 -0.9225  0.4951
 3771SOL    HW211449   1.540   4.008   1.777  0.7881 -0.1553  0.1804
 3772SOL     OW11450   4.644   3.977   3.422 -0.0619  0.1557 -0.0622
 3772SOL    HW111451   4.593   3.937   3.492  1.0982 -0.4979  0.4393
 3772SOL    HW211452   4.735   3.956   3.443  0.4757  1.7520 -0.6323
 3773SOL     OW11453   0.633   2.963   2.718  0.3963 -0.6808  0.3770
 3773SOL    HW111454   0.727   2.974   2.735  0.9670  0.7419 -2.9378
 3773SOL    HW211455   0.592   3.028   2.776  1.4455 -1.0128  1.5588
 3774SOL     OW11456   0.339   4.789   1.233  0.4912  0.1570  0.7941
 3774SOL    HW111457   0.293   4.711   1.265  1.0839 -0.2158  0.7646
 3774SOL    HW211458   0.411   4.801   1.295  2.1253 -1.0319 -0.7549
 3775SOL     OW11459   0.874   0.079   2.126 -0.9234 -0.1696  1.1668
 3775SOL    HW111460   0.798   0.022   2.113 -2.0403  0.1136  5.1892
 3775SOL    HW211461   0.840   0.167   2.110 -0.6036 -0.2282  0.0962
 3776SOL     OW11462   0.741   3.623   0.519 -0.5903 -0.1133  0.1693
 3776SOL    HW111463   0.677   3.682   0.481 -2.3281 -3.2747 -2.3401
 3776SOL    HW211464   0.718   3.620   0.612 -2.1268  1.1167 -0.1246
 3777SOL     OW11465   0.244   1.334   2.965 -0.4057 -0.2658 -0.0557
 3777SOL    HW111466   0.338   1.337   2.948 -0.2217  0.0944  0.9787
 3777SOL    HW211467   0.210   1.270   2.902  0.5130 -0.3305 -0.4929
 3778SOL     OW11468   0.623   3.255   1.104  0.1287  0.8680  0.0835
 3778SOL    HW111469   0.675   3.297   1.035 -0.4715  1.5002  0.0126
 3778SOL    HW211470   0.567   3.193   1.057  0.8342  0.1454  0.1650
 3779SOL     OW11471   1.832   4.154   1.929  0.4830 -0.2355  0.3534
 3779SOL    HW111472   1.744   4.140   1.893 -0.4722  0.2746  2.3490
 3779SOL    HW211473   1.866   4.229   1.881 -2.1569  2.7335  2.7055
 3780SOL     OW11474   0.920   1.485   1.353  0.4867 -0.1156  0.3318
 3780SOL    HW111475   0.859   1.551   1.318  0.7862  0.1915  0.3811
 3780SOL    HW211476   0.920   1.415   1.288 -1.4220 -1.0356  1.2423
 3781SOL     OW11477   0.193   1.089   3.779 -0.1644 -0.0864  0.3981
 3781SOL    HW111478   0.159   1.034   3.709  0.9710  1.6070 -1.6172
 3781SOL    HW211479   0.124   1.090   3.845 -0.9144 -2.4651 -0.2366
 3782SOL     OW11480   3.267   1.401   2.877 -0.0812  0.4170  0.5262
 3782SOL    HW111481   3.298   1.401   2.968 -1.3110  0.8815  0.9605
 3782SOL    HW211482   3.173   1.384   2.884  0.2176 -2.2082 -0.8276
 3783SOL     OW11483   5.025   1.004   3.221 -0.5415 -0.3156  0.3108
 3783SOL    HW111484   4.960   0.966   3.279 -0.3094  1.0616  1.5328
 3783SOL    HW211485   5.024   1.098   3.242  1.8976 -0.2659  0.4856
 3784SOL     OW11486   1.354   2.834   4.888 -0.1607  0.3396  0.3165
 3784SOL    HW111487   1.429   2.779   4.863 -1.8395 -1.4255 -1.1686
 3784SOL    HW211488   1.354   2.905   4.824 -0.6562 -0.5743 -0.7407
 3785SOL     OW11489   1.041   1.747   1.844 -0.4330 -0.2846  0.1765
 3785SOL    HW111490   1.053   1.656   1.817 -0.9972 -0.2210 -0.3099
 3785SOL    HW211491   0.960   1.775   1.801 -0.3069  0.4267  0.3780
 3786SOL     OW11492   0.397   1.037   4.766  0.8164 -0.2276  0.1445
 3786SOL    HW111493   0.324   1.007   4.821  0.6395 -0.4846 -0.2267
 3786SOL    HW211494   0.355   1.071   4.687  1.0578  0.3673  0.2734
 3787SOL     OW11495   1.127   0.291   0.755 -0.3791 -0.0572 -0.0037
 3787SOL    HW111496   1.151   0.342   0.832 -1.5848 -1.5024  1.3948
 3787SOL    HW211497   1.201   0.301   0.696  0.3348  1.5560  1.0949
 3788SOL     OW11498   4.792   0.190   1.750  0.0456  0.3471 -0.1366
 3788SOL    HW111499   4.866   0.248   1.766 -1.1334  2.8536 -2.9210
 3788SOL    HW211500   4.831   0.110   1.713  1.4194  1.2965 -0.8021
 3789SOL     OW11501   3.620   0.591   3.307  0.4885 -0.1410  0.5090
 3789SOL    HW111502   3.595   0.648   3.234  2.8695 -0.3198 -0.5415
 3789SOL    HW211503   3.703   0.553   3.280 -0.0577 -2.6156  2.0496
 3790SOL     OW11504   2.932   1.073   1.067 -0.2564  0.2336 -0.1056
 3790SOL    HW111505   3.003   1.046   1.008 -0.1101 -2.7064  1.2513
 3790SOL    HW211506   2.976   1.130   1.131  0.6460 -0.4733 -0.0616
 3791SOL     OW11507   0.503   1.542   4.744 -0.5606  0.0628 -0.1435
 3791SOL    HW111508   0.468   1.460   4.779 -0.8237  0.6222  0.9604
 3791SOL    HW211509   0.459   1.552   4.659  1.2723 -2.1112 -1.4792
 3792SOL     OW11510   3.994   2.681   3.087 -0.4438  0.2037 -0.4126
 3792SOL    HW111511   3.974   2.644   3.001 -1.8997 -1.1050  0.4389
 3792SOL    HW211512   3.914   2.668   3.138  0.5018  0.6217  1.2464
 3793SOL     OW11513   2.923   4.341   1.189 -0.0502 -0.0272 -0.3099
 3793SOL    HW111514   2.943   4.434   1.204  1.3331 -0.2843 -0.4526
 3793SOL    HW211515   2.963   4.296   1.264 -2.0390 -0.4025  0.5928
 3794SOL     OW11516   0.115   1.710   4.495  0.1090 -0.4932 -0.4792
 3794SOL    HW111517   0.021   1.718   4.506  0.1539 -1.1236  0.4195
 3794SOL    HW211518   0.139   1.786   4.442 -0.5358  1.1463  1.4442
 3795SOL     OW11519   0.650   3.737   2.499  0.1317  0.3583 -0.8204
 3795SOL    HW111520   0.689   3.776   2.577 -0.1872 -0.6095 -0.1476
 3795SOL    HW211521   0.629   3.647   2.526 -2.1293  0.6772 -1.2774
 3796SOL     OW11522   0.696   1.208   4.084 -0.3424  0.0338  0.1605
 3796SOL    HW111523   0.663   1.183   4.171 -0.4408 -1.0731 -0.1775
 3796SOL    HW211524   0.655   1.293   4.067 -0.9515 -0.1046  0.8612
 3797SOL     OW11525   2.526   3.181   1.342 -0.8153 -0.5516  0.4435
 3797SOL    HW111526   2.572   3.099   1.322 -0.0296  0.6581 -3.6680
 3797SOL    HW211527   2.594   3.238   1.378  0.2517  0.0974 -2.3474
 3798SOL     OW11528   2.750   3.425   0.888 -0.9853 -0.2333 -0.5760
 3798SOL    HW111529   2.763   3.381   0.973  0.3298 -0.4295 -0.8528
 3798SOL    HW211530   2.700   3.362   0.836 -2.9988  0.4238  0.4504
 3799SOL     OW11531   4.623   2.821   2.548 -0.1698 -0.1716  0.1100
 3799SOL    HW111532   4.591   2.873   2.621 -1.3976 -0.7749  0.0217
 3799SOL    HW211533   4.590   2.866   2.470 -1.2466 -1.0500  0.0325
 3800SOL     OW11534   1.327   4.977   3.659  0.6683 -0.2319 -0.3365
 3800SOL    HW111535   1.389   4.905   3.649 -1.0521 -1.8958  0.3250
 3800SOL    HW211536   1.277   4.977   3.578  1.1466  0.7722 -0.6562
 3801SOL     OW11537   3.101   1.556   2.058 -0.2067  0.2796 -0.2807
 3801SOL    HW111538   3.055   1.575   2.140 -1.3234  0.3473 -0.9021
 3801SOL    HW211539   3.092   1.636   2.007  3.1680  1.4085  0.6815
 3802SOL     OW11540   2.214   2.286   0.019  0.0885 -0.2956 -0.0139
 3802SOL    HW111541   2.298   2.241   0.009  1.4016  1.6321  1.4597
 3802SOL    HW211542   2.181   2.257   0.104 -1.1666 -1.5986 -0.8971
 3803SOL     OW11543   4.585   4.080   4.136  0.7773 -0.2973 -0.3334
 3803SOL    HW111544   4.678   4.058   4.135  0.8908  0.1789 -0.4311
 3803SOL    HW211545   4.573   4.138   4.060  0.5931  0.4254  0.2367
 3804SOL     OW11546   4.190   0.489   4.965  0.1275 -0.4633  0.0096
 3804SOL    HW111547   4.161   0.565   4.913  1.2017  0.4639  0.7252
 3804SOL    HW211548   4.150   0.414   4.920 -0.0074  0.4081 -1.4166
 3805SOL     OW11549   1.318   4.425   2.304  0.3803  0.8491 -0.0944
 3805SOL    HW111550   1.344   4.374   2.381 -0.0140 -1.0629 -1.1552
 3805SOL    HW211551   1.350   4.513   2.322  1.0957  0.2574  1.8449
 3806SOL     OW11552   0.792   0.291   2.968 -0.1408 -0.2059 -0.3534
 3806SOL    HW111553   0.822   0.312   2.880 -0.5612 -0.9705 -0.6888
 3806SOL    HW211554   0.741   0.368   2.995 -3.1564 -1.3272 -2.2380
 3807SOL     OW11555   4.374   4.823   0.300 -0.1506 -0.3501 -0.3891
 3807SOL    HW111556   4.320   4.763   0.353  2.9715 -2.1056  1.0931
 3807SOL    HW211557   4.363   4.792   0.210 -1.9531 -0.2874 -0.2333
 3808SOL     OW11558   3.057   4.903   0.704  0.3281 -0.2876 -0.2779
 3808SOL    HW111559   3.138   4.938   0.667 -1.0568  2.3011 -1.1129
 3808SOL    HW211560   3.024   4.974   0.760  0.0807 -2.4090  2.4604
 3809SOL     OW11561   3.364   1.147   4.090  0.6309  0.1317 -0.4732
 3809SOL    HW111562   3.362   1.077   4.155  1.0770  0.8572  0.3420
 3809SOL    HW211563   3.433   1.206   4.120  0.2332  0.9537 -1.1242
 3810SOL     OW11564   4.918   2.620   4.961  0.2884  0.6705 -0.1175
 3810SOL    HW111565   4.973   2.585   4.891 -0.4188 -0.6478 -0.0354
 3810SOL    HW211566   4.979   2.665   5.019  1.2012 -0.2277 -0.3496
 3811SOL     OW11567   4.884   0.379   2.919 -0.5641 -0.0272  0.0282
 3811SOL    HW111568   4.857   0.470   2.920 -0.4680  0.0104  1.1184
 3811SOL    HW211569   4.976   0.381   2.891 -0.3410  0.2990  0.7440
 3812SOL     OW11570   3.170   2.249   4.114  0.0091  0.1346 -0.1840
 3812SOL    HW111571   3.172   2.311   4.187 -1.4336  0.1571 -0.1395
 3812SOL    HW211572   3.261   2.246   4.083  0.5370  0.5689  1.2296
 3813SOL     OW11573   4.727   2.481   0.253  0.1162  0.9312  0.3288
 3813SOL    HW111574   4.815   2.477   0.291  0.0034 -1.3523  0.4686
 3813SOL    HW211575   4.713   2.394   0.215 -2.6846  0.6935  1.6721
 3814SOL     OW11576   3.885   4.541   1.781 -0.7412 -0.5358  0.0302
 3814SOL    HW111577   3.813   4.603   1.775 -0.8137 -0.6870 -0.7412
 3814SOL    HW211578   3.883   4.494   1.698 -0.7383 -1.6311  0.6306
 3815SOL     OW11579   1.057   2.805   4.708  0.0875 -0.2615  0.1064
 3815SOL    HW111580   1.045   2.738   4.775 -1.4450 -0.8020 -0.6624
 3815SOL    HW211581   1.102   2.759   4.637  1.2823  0.1907  0.5426
 3816SOL     OW11582   1.770   0.595   0.102 -0.2000 -0.5797  0.1271
 3816SOL    HW111583   1.800   0.649   0.175  1.0164 -2.0272  0.7742
 3816SOL    HW211584   1.743   0.512   0.143 -1.1094 -0.8221 -0.9122
 3817SOL     OW11585   2.389   3.666   2.950  0.4530 -0.4200  0.5403
 3817SOL    HW111586   2.470   3.638   2.994  1.4364  1.3029 -0.0553
 3817SOL    HW211587   2.349   3.728   3.010  0.5904  0.1711  0.0401
 3818SOL     OW11588   1.462   1.043   2.111 -0.3014  0.0582 -0.0586
 3818SOL    HW111589   1.405   1.120   2.113 -0.4091 -0.0273  0.3307
 3818SOL    HW211590   1.530   1.065   2.048  0.6388  1.1815  1.2867
 3819SOL     OW11591   4.531   4.377   1.751 -0.2628 -0.3531  0.2374
 3819SOL    HW111592   4.581   4.417   1.680 -0.2958 -1.8397 -0.6727
 3819SOL    HW211593   4.504   4.450   1.806 -0.1469  0.8386 -1.2231
 3820SOL     OW11594   1.430   3.204   3.580 -0.7854 -0.3128  0.0301
 3820SOL    HW111595   1.353   3.168   3.624 -0.1109 -0.4488  1.1482
 3820SOL    HW211596   1.491   3.131   3.575  1.1632  0.8334  3.5939
 3821SOL     OW11597   3.833   1.572   2.540  0.1230 -0.8175 -0.4742
 3821SOL    HW111598   3.846   1.479   2.556  0.7017 -0.7780 -0.6795
 3821SOL    HW211599   3.852   1.583   2.447 -2.2377 -0.8858 -1.0221
 3822SOL     OW11600   0.018   1.446   2.840  0.5665  0.2009  0.4633
 3822SOL    HW111601   0.038   1.393   2.763  0.1550  1.3394 -0.4483
 3822SOL    HW211602   0.094   1.434   2.897  0.5709 -1.1982  0.1990
 3823SOL     OW11603   0.330   2.204   4.367  0.6278 -1.0171 -0.2824
 3823SOL    HW111604   0.403   2.206   4.305  1.9524  0.9348  1.1994
 3823SOL    HW211605   0.279   2.282   4.345 -0.4416 -1.7750 -0.5906
 3824SOL     OW11606   3.882   1.694   1.664 -0.5948  0.3719  0.6388
 3824SOL    HW111607   3.806   1.666   1.612  0.0104 -1.2008  0.5317
 3824SOL    HW211608   3.895   1.786   1.640 -1.1582  0.0718 -0.9862
 3825SOL     OW11609   1.303   4.119   3.158  0.0870  0.2675  0.2226
 3825SOL    HW111610   1.284   4.026   3.143  1.2156 -0.1201  1.0565
 3825SOL    HW211611   1.228   4.151   3.209 -0.8637  0.1280 -1.0264
 3826SOL     OW11612   4.136   1.079   0.769  0.2935  0.0903 -0.1205
 3826SOL    HW111613   4.133   1.037   0.682 -0.1180  1.6117 -0.8809
 3826SOL    HW211614   4.046   1.072   0.801  0.6171 -1.1773  0.5587
 3827SOL     OW11615   0.165   3.487   3.567 -0.3291  0.5468  0.0260
 3827SOL    HW111616   0.176   3.472   3.661 -2.6933  0.8336  0.4242
 3827SOL    HW211617   0.087   3.436   3.545  0.6048 -0.0981 -1.9663
 3828SOL     OW11618   1.110   2.178   1.744 -0.6794  1.2074 -0.5870
 3828SOL    HW111619   1.177   2.224   1.795  0.0871 -0.5997  0.1263
 3828SOL    HW211620   1.156   2.149   1.665 -0.8332  0.6693 -0.4827
 3829SOL     OW11621   1.623   3.265   0.255 -0.1535  0.3044 -0.1711
 3829SOL    HW111622   1.564   3.340   0.265  0.0312  0.3186  0.9400
 3829SOL    HW211623   1.704   3.293   0.297  0.5571  0.1658 -1.4009
 3830SOL     OW11624   4.568   3.169   2.916  0.0353 -0.4965  0.2208
 3830SOL    HW111625   4.549   3.191   3.007  0.2156 -1.6922  0.5649
 3830SOL    HW211626   4.538   3.245   2.866  1.7540  1.0539  1.4158
 3831SOL     OW11627   1.844   4.549   1.746 -0.5759 -0.4521  0.0083
 3831SOL    HW111628   1.910   4.616   1.730 -0.0364 -0.9213  0.2435
 3831SOL    HW211629   1.760   4.594   1.731 -0.1843 -0.4064 -2.4435
 3832SOL     OW11630   4.668   1.138   4.304 -0.4597 -0.3832 -0.3753
 3832SOL    HW111631   4.614   1.164   4.379 -1.1400 -1.1802 -0.5649
 3832SOL    HW211632   4.752   1.112   4.342 -0.1751  0.9202 -0.0794
 3833SOL     OW11633   0.187   2.935   0.349 -0.6407  0.1871  0.3369
 3833SOL    HW111634   0.263   2.945   0.407 -1.2142 -0.3903  1.1905
 3833SOL    HW211635   0.212   2.984   0.270  1.2506 -1.2022 -0.0196
 3834SOL     OW11636   3.694   0.819   4.460 -0.3505  0.2064  0.7575
 3834SOL    HW111637   3.644   0.887   4.505  2.0737  2.5711  0.1321
 3834SOL    HW211638   3.771   0.864   4.427  0.4676 -2.4969 -1.3832
 3835SOL     OW11639   3.431   4.197   1.767  0.1195 -0.3732 -0.1577
 3835SOL    HW111640   3.527   4.198   1.769  0.1432  1.5723  0.6395
 3835SOL    HW211641   3.409   4.190   1.674  1.0082 -1.1576 -0.3292
 3836SOL     OW11642   3.170   0.604   2.351  0.5461  0.4339 -0.1692
 3836SOL    HW111643   3.100   0.667   2.365 -1.3601 -1.8791  1.4906
 3836SOL    HW211644   3.193   0.573   2.438  1.0331 -1.5331 -0.9423
 3837SOL     OW11645   4.277   0.061   1.447  0.0553  0.4198  0.4933
 3837SOL    HW111646   4.318  -0.007   1.501 -0.3197  0.1662  0.4671
 3837SOL    HW211647   4.345   0.089   1.386  0.9084  1.6305  1.9254
 3838SOL     OW11648   2.453   4.828   0.390  0.0147 -0.3822 -0.6515
 3838SOL    HW111649   2.445   4.768   0.316  1.3221 -0.3307 -0.8451
 3838SOL    HW211650   2.383   4.892   0.376 -0.8859 -1.3830 -0.8661
 3839SOL     OW11651   0.917   0.179   4.910  0.0076 -0.0037  0.3845
 3839SOL    HW111652   0.846   0.116   4.902  0.0151  0.0327  0.0249
 3839SOL    HW211653   0.904   0.218   4.997 -0.3403 -0.0826  0.3710
 3840SOL     OW11654   1.499   4.486   1.827  0.1226  0.3800 -0.5704
 3840SOL    HW111655   1.427   4.474   1.890  0.5580 -4.6413 -0.6197
 3840SOL    HW211656   1.578   4.469   1.878  0.6835 -1.0616 -1.8681
 3841SOL     OW11657   0.126   0.874   3.624  0.0351  0.2976  0.3942
 3841SOL    HW111658   0.167   0.920   3.552  0.3027  2.3155  1.7552
 3841SOL    HW211659   0.169   0.789   3.627 -0.1090  0.1038 -1.8892
 3842SOL     OW11660   0.782   1.162   3.257 -0.0801 -0.4656 -0.8855
 3842SOL    HW111661   0.765   1.255   3.266  0.4524 -0.1672 -2.6290
 3842SOL    HW211662   0.702   1.120   3.289 -1.2046  0.6783 -2.0676
 3843SOL     OW11663   4.609   0.270   3.450 -0.7940 -0.5616 -0.2326
 3843SOL    HW111664   4.568   0.277   3.536  0.9397 -1.2734  0.7034
 3843SOL    HW211665   4.694   0.313   3.460 -0.5934 -0.5637 -1.6341
 3844SOL     OW11666   2.845   0.067   2.639  0.9417 -0.2472  0.2909
 3844SOL    HW111667   2.836   0.145   2.585  0.3280  0.5612  1.5113
 3844SOL    HW211668   2.878   0.099   2.723 -2.5610 -0.7351  2.0373
 3845SOL     OW11669   3.840   1.485   0.028  0.2358  0.2760 -0.4796
 3845SOL    HW111670   3.826   1.476   0.123 -1.3588 -2.4867 -0.8805
 3845SOL    HW211671   3.924   1.443   0.012  0.1558  0.0647 -0.3594
 3846SOL     OW11672   3.637   1.850   2.318  0.7161 -0.6100 -0.3333
 3846SOL    HW111673   3.557   1.797   2.315  0.5270 -0.2799 -2.8399
 3846SOL    HW211674   3.615   1.925   2.374 -0.0038 -1.5799  0.7186
 3847SOL     OW11675   2.482   3.259   0.873 -0.1218 -0.3371  0.0055
 3847SOL    HW111676   2.470   3.287   0.783 -0.0338  0.2996  0.1885
 3847SOL    HW211677   2.414   3.304   0.922 -0.1429 -0.6463  0.2654
 3848SOL     OW11678   2.018   3.849   4.042  0.3468  0.2489 -0.3474
 3848SOL    HW111679   2.010   3.933   3.997  0.3142 -0.3052 -1.3904
 3848SOL    HW211680   1.941   3.844   4.098  1.4003  1.8684  1.4071
 3849SOL     OW11681   4.353   3.693   3.702  0.2199 -0.1042  0.8190
 3849SOL    HW111682   4.382   3.607   3.732 -0.1220  0.0373  1.5756
 3849SOL    HW211683   4.269   3.676   3.659  0.7299 -0.3132 -0.1066
 3850SOL     OW11684   0.947   3.238   3.307  0.4386 -0.5722 -0.2212
 3850SOL    HW111685   0.891   3.169   3.344 -0.3679  0.4505  0.5388
 3850SOL    HW211686   0.967   3.208   3.218 -0.8506 -1.2536 -0.3052
 3851SOL     OW11687   2.489   3.918   1.447  0.9523  0.1471  0.9276
 3851SOL    HW111688   2.530   3.968   1.377  0.6444 -1.9150 -0.8191
 3851SOL    HW211689   2.418   3.975   1.478  2.4185  1.9948  1.1286
 3852SOL     OW11690   1.448   1.368   1.446  0.2878 -0.5554 -0.4174
 3852SOL    HW111691   1.487   1.433   1.505 -0.5499 -0.2090 -0.2273
 3852SOL    HW211692   1.455   1.407   1.359  0.5977 -0.6106 -0.4181
 3853SOL     OW11693   3.496   0.125   0.977  0.4435  0.3928 -0.8465
 3853SOL    HW111694   3.496   0.029   0.971 -0.1283  0.4378 -1.8708
 3853SOL    HW211695   3.410   0.147   1.012  1.5591  0.4412  2.0829
 3854SOL     OW11696   1.965   4.167   2.174 -0.0223  0.4508  0.7622
 3854SOL    HW111697   1.918   4.114   2.238  1.8980 -1.0219  1.0210
 3854SOL    HW211698   1.911   4.161   2.095 -1.5197  0.8788  1.7063
 3855SOL     OW11699   2.753   3.593   2.438 -0.5315 -0.3856 -0.3462
 3855SOL    HW111700   2.802   3.515   2.464  2.9156  1.9654  0.9229
 3855SOL    HW211701   2.712   3.624   2.518 -3.5040 -1.7582 -1.2059
 3856SOL     OW11702   2.533   0.984   1.850  0.3811  0.7228  0.8023
 3856SOL    HW111703   2.444   0.971   1.883  0.1580 -1.0121 -0.3616
 3856SOL    HW211704   2.568   1.055   1.904 -1.4168  0.9035  1.8231
 3857SOL     OW11705   1.334   0.061   1.199  0.3027  0.3521  0.0527
 3857SOL    HW111706   1.248   0.079   1.238  0.2118 -0.6210  0.3377
 3857SOL    HW211707   1.397   0.102   1.258  0.1502 -0.8642  1.1158
 3858SOL     OW11708   2.525   4.216   4.513  0.1965 -0.1942  0.0674
 3858SOL    HW111709   2.487   4.254   4.433  0.9517  0.7345  0.1265
 3858SOL    HW211710   2.535   4.291   4.572  0.2402 -0.7664  0.7949
 3859SOL     OW11711   2.170   0.976   0.150 -0.0167 -0.1673 -0.2353
 3859SOL    HW111712   2.180   0.881   0.161  0.8423  0.0984  1.6179
 3859SOL    HW211713   2.256   1.012   0.170 -0.9764  1.1785  1.7704
 3860SOL     OW11714   2.232   1.839   2.105 -0.0872 -0.6661 -0.0348
 3860SOL    HW111715   2.182   1.856   2.025 -0.5496  1.8106  0.6962
 3860SOL    HW211716   2.190   1.763   2.144  0.3037 -2.1012 -2.2147
 3861SOL     OW11717   0.954   3.672   4.583 -0.2628  0.2306 -0.1549
 3861SOL    HW111718   0.991   3.603   4.529 -1.0605  1.2485 -2.1058
 3861SOL    HW211719   0.859   3.665   4.570 -0.3208  2.1863 -1.1003
 3862SOL     OW11720   1.773   4.062   3.028 -0.7446 -0.0976 -0.1026
 3862SOL    HW111721   1.737   4.069   3.116  0.2901  0.7569  0.2781
 3862SOL    HW211722   1.859   4.021   3.040 -0.5809  0.0542 -0.7068
 3863SOL     OW11723   0.533   3.473   2.915  0.5979 -0.1698  0.2267
 3863SOL    HW111724   0.608   3.414   2.926 -0.5797 -1.8083 -0.1029
 3863SOL    HW211725   0.474   3.450   2.986 -0.4452 -0.3037 -0.6605
 3864SOL     OW11726   2.988   2.853   1.882  0.2222 -0.2472 -0.0934
 3864SOL    HW111727   2.989   2.781   1.819  0.7054 -0.8029  0.5389
 3864SOL    HW211728   3.056   2.830   1.946 -0.9375 -0.1865  1.1960
 3865SOL     OW11729   4.904   0.118   2.682  0.3756 -0.7105  0.0792
 3865SOL    HW111730   4.817   0.119   2.722  0.7441 -0.9567  0.9284
 3865SOL    HW211731   4.964   0.102   2.756  0.9722 -2.7401 -0.7742
 3866SOL     OW11732   1.264   0.005   0.053 -0.1489  0.1664  0.9947
 3866SOL    HW111733   1.213  -0.005  -0.028  0.4898 -1.4237  0.7358
 3866SOL    HW211734   1.351   0.033   0.024  0.1119 -0.5033  1.0921
 3867SOL     OW11735   1.591   4.406   4.739 -0.0172  0.1417 -0.1847
 3867SOL    HW111736   1.645   4.353   4.681 -2.0024 -1.6823 -0.4958
 3867SOL    HW211737   1.568   4.483   4.686 -2.4990 -1.8638 -2.3667
 3868SOL     OW11738   4.616   3.208   4.899 -0.3912 -0.0263 -0.5507
 3868SOL    HW111739   4.607   3.148   4.973  0.0924 -1.3861 -1.5585
 3868SOL    HW211740   4.616   3.151   4.822 -0.3110  1.3109 -1.5669
 3869SOL     OW11741   3.319   0.443   3.435  0.4190 -0.6223 -0.0917
 3869SOL    HW111742   3.357   0.530   3.423 -0.1423 -0.6318 -2.2994
 3869SOL    HW211743   3.335   0.398   3.352 -0.1858 -2.2794  0.6583
 3870SOL     OW11744   1.677   1.796   4.912  0.0466  0.3685  0.4086
 3870SOL    HW111745   1.701   1.830   4.825 -0.0583  1.3862  0.7564
 3870SOL    HW211746   1.761   1.789   4.958  0.0436  0.4406  0.4265
 3871SOL     OW11747   3.279   3.041   1.336  0.1560 -0.4760 -0.4840
 3871SOL    HW111748   3.322   3.112   1.289  0.5251  0.4279  1.1465
 3871SOL    HW211749   3.285   2.966   1.277 -0.4241  0.8636 -2.3339
 3872SOL     OW11750   2.490   1.196   4.731 -0.2338  0.2309  0.3433
 3872SOL    HW111751   2.425   1.131   4.760 -1.1906  0.9612 -0.1305
 3872SOL    HW211752   2.481   1.199   4.636  0.6473  0.2070  0.2460
 3873SOL     OW11753   4.735   3.271   0.480 -0.5101 -0.1207  0.0732
 3873SOL    HW111754   4.664   3.234   0.533 -0.9062  1.2753  0.5631
 3873SOL    HW211755   4.695   3.346   0.436 -0.0052 -0.8650 -1.7155
 3874SOL     OW11756   1.287   2.332   4.153  0.2468 -0.2192  0.0138
 3874SOL    HW111757   1.340   2.272   4.206  2.7649  0.7946 -1.2038
 3874SOL    HW211758   1.254   2.397   4.216  1.3151 -0.2956  0.6746
 3875SOL     OW11759   2.901   2.134   4.076  0.0937 -0.5664 -0.1147
 3875SOL    HW111760   2.986   2.172   4.055 -0.4779  0.3723 -0.7972
 3875SOL    HW211761   2.864   2.193   4.142 -1.2653  0.7869 -1.9662
 3876SOL     OW11762   2.298   1.775   1.200  0.2247  0.0506  0.0889
 3876SOL    HW111763   2.286   1.865   1.172  0.6074  0.3548  0.8761
 3876SOL    HW211764   2.385   1.751   1.168 -0.1204 -0.2479 -0.6452
 3877SOL     OW11765   3.091   0.215   4.278  0.3582  0.4673  0.9220
 3877SOL    HW111766   3.111   0.270   4.353  1.8953 -0.3428  1.1639
 3877SOL    HW211767   3.175   0.172   4.257 -0.0283  0.6321 -1.2182
 3878SOL     OW11768   3.514   4.369   4.096  0.0828 -0.5849 -0.7243
 3878SOL    HW111769   3.580   4.439   4.098 -0.9488  0.4109  0.4056
 3878SOL    HW211770   3.507   4.346   4.004  0.3062  0.9830 -1.1733
 3879SOL     OW11771   3.055   1.596   0.355  0.0106  0.2189  0.1200
 3879SOL    HW111772   2.976   1.546   0.334  0.3633 -0.2248 -0.1496
 3879SOL    HW211773   3.119   1.530   0.382  0.8033  0.4204 -1.2022
 3880SOL     OW11774   2.802   1.391   4.657  0.4507 -0.4744  0.2224
 3880SOL    HW111775   2.766   1.477   4.635 -0.9456 -0.2785  2.9521
 3880SOL    HW211776   2.725   1.335   4.668  1.3042 -1.8362 -0.4714
 3881SOL     OW11777   4.707   0.880   1.618  0.0448 -0.0918  0.0333
 3881SOL    HW111778   4.736   0.798   1.659 -0.7807 -0.0382  0.7583
 3881SOL    HW211779   4.750   0.949   1.667 -0.0044 -0.0637  0.0380
 3882SOL     OW11780   1.349   2.917   4.518 -0.1466 -0.5855  0.3499
 3882SOL    HW111781   1.379   2.895   4.430  0.6099  0.8597  0.2139
 3882SOL    HW211782   1.337   2.833   4.561  3.3737 -1.3395  0.1385
 3883SOL     OW11783   0.527   3.419   0.267  0.2002 -0.4677  0.3291
 3883SOL    HW111784   0.532   3.507   0.305  1.4811 -0.6434  0.6015
 3883SOL    HW211785   0.511   3.361   0.342 -0.3481 -0.5154  0.1851
 3884SOL     OW11786   0.011   4.981   3.357  0.2868 -0.8931  0.0442
 3884SOL    HW111787   0.070   4.953   3.287  0.8093 -0.3552  0.2651
 3884SOL    HW211788  -0.016   5.069   3.331  1.1810 -0.3385  0.9645
 3885SOL     OW11789   0.658   1.913   2.793  0.7661 -0.2370  0.2177
 3885SOL    HW111790   0.721   1.983   2.777  0.4736  0.0235  0.1956
 3885SOL    HW211791   0.576   1.958   2.813  0.5563 -0.5732  0.1313
 3886SOL     OW11792   1.188   1.603   1.222  0.0063  0.0625  0.0285
 3886SOL    HW111793   1.201   1.527   1.166  0.0818 -0.4418  0.7187
 3886SOL    HW211794   1.105   1.586   1.266 -0.2455  0.6394 -0.2096
 3887SOL     OW11795   4.745   4.466   2.943 -0.3471 -0.0476 -0.1520
 3887SOL    HW111796   4.678   4.534   2.933 -1.9310 -1.2067  1.8601
 3887SOL    HW211797   4.788   4.488   3.026  0.6279 -0.2835 -0.5839
 3888SOL     OW11798   3.249   4.663   4.033 -0.1506 -0.4694  0.1230
 3888SOL    HW111799   3.315   4.674   4.101 -0.2108 -1.1779  0.2987
 3888SOL    HW211800   3.190   4.597   4.067 -0.7348 -0.1271 -0.2072
 3889SOL     OW11801   1.936   1.258   2.887 -0.4732  0.1931 -0.2483
 3889SOL    HW111802   1.895   1.172   2.887 -1.6871  0.6548  2.6105
 3889SOL    HW211803   1.866   1.318   2.912  0.3961  2.0291 -1.9529
 3890SOL     OW11804   4.550   1.643   0.127  0.1502  0.0194 -0.4409
 3890SOL    HW111805   4.469   1.684   0.096 -0.4691 -0.2090  0.8011
 3890SOL    HW211806   4.575   1.695   0.204  0.0277 -1.1503  0.4271
 3891SOL     OW11807   2.169   0.559   0.470 -0.0477 -0.3044 -0.1145
 3891SOL    HW111808   2.263   0.565   0.489  0.0785  0.6174 -0.9331
 3891SOL    HW211809   2.128   0.554   0.556  0.7766 -1.2371  0.2457
 3892SOL     OW11810   4.752   3.844   3.060  0.1363 -0.0241  0.2791
 3892SOL    HW111811   4.744   3.929   3.104  0.0565  0.4058 -0.5540
 3892SOL    HW211812   4.677   3.840   3.001 -0.3020 -1.0249  0.8714
 3893SOL     OW11813   0.672   3.852   2.947 -0.1864  0.0474  0.4124
 3893SOL    HW111814   0.732   3.786   2.981 -0.6029  0.9716  3.1957
 3893SOL    HW211815   0.697   3.862   2.855 -0.0794 -3.8641 -0.1335
 3894SOL     OW11816   3.836   4.285   4.483  0.4784 -0.0773  0.1653
 3894SOL    HW111817   3.845   4.190   4.490 -2.0062 -0.4586 -0.8789
 3894SOL    HW211818   3.874   4.307   4.398  1.0054 -0.1241  0.3838
 3895SOL     OW11819   2.760   0.380   4.263 -0.6666  0.0231 -0.3888
 3895SOL    HW111820   2.703   0.307   4.241  0.4191 -0.5928 -1.2443
 3895SOL    HW211821   2.842   0.362   4.217 -0.3324  1.7238 -0.5195
 3896SOL     OW11822   0.371   3.461   1.597 -0.0580 -0.0305 -0.0420
 3896SOL    HW111823   0.376   3.483   1.504  0.5170 -1.4244 -0.3735
 3896SOL    HW211824   0.346   3.369   1.599  1.8771 -0.6093  1.0950
 3897SOL     OW11825   1.976   3.788   0.176 -0.2450  0.0131 -0.1358
 3897SOL    HW111826   1.986   3.716   0.239 -0.5279 -0.9185 -1.1166
 3897SOL    HW211827   1.888   3.776   0.140 -0.6172  1.3535  0.2625
 3898SOL     OW11828   4.821   0.349   4.292 -0.5017 -0.4443 -0.4019
 3898SOL    HW111829   4.785   0.334   4.380  1.3272  0.4946  0.5886
 3898SOL    HW211830   4.908   0.310   4.296  0.3066  1.2007 -1.1688
 3899SOL     OW11831   2.000   4.431   0.866 -0.1730  0.8975 -0.0937
 3899SOL    HW111832   1.929   4.462   0.922  0.5422  1.1939  0.6680
 3899SOL    HW211833   2.060   4.388   0.926  0.7099  1.4005 -0.6002
 3900SOL     OW11834   1.808   4.315   2.928 -0.4464  0.5151  0.2164
 3900SOL    HW111835   1.779   4.251   2.993 -1.1585  1.5293  0.9221
 3900SOL    HW211836   1.744   4.386   2.934 -1.4170 -0.0060 -2.6433
 3901SOL     OW11837   2.904   3.291   1.198  0.5205  0.1936 -0.4428
 3901SOL    HW111838   2.883   3.207   1.241  1.0006 -0.3753 -1.2826
 3901SOL    HW211839   2.946   3.342   1.267 -2.9003  1.1733  1.1437
 3902SOL     OW11840   3.522   4.941   4.901  0.1012  0.1245  0.4186
 3902SOL    HW111841   3.527   4.855   4.861 -3.6220 -0.0731  0.0560
 3902SOL    HW211842   3.559   4.929   4.989 -0.5213 -1.9259  0.4486
 3903SOL     OW11843   4.996   4.147   4.898  0.3010 -0.0073 -0.2841
 3903SOL    HW111844   5.076   4.191   4.871  0.0354  0.2288 -0.6989
 3903SOL    HW211845   4.985   4.170   4.990  0.8193 -0.2146 -0.1660
 3904SOL     OW11846   2.746   2.713   1.036 -0.0933 -0.0889  0.5927
 3904SOL    HW111847   2.739   2.798   0.994 -2.9234 -0.7102 -0.4009
 3904SOL    HW211848   2.785   2.731   1.121 -0.3755  2.1391  0.3011
 3905SOL     OW11849   1.187   3.303   1.501  0.7631  0.3598 -0.4265
 3905SOL    HW111850   1.108   3.263   1.537  2.6394 -1.3881  2.1605
 3905SOL    HW211851   1.181   3.395   1.526  0.1243 -0.0145  0.8849
 3906SOL     OW11852   4.781   4.842   0.026  0.2203 -0.2977 -0.6571
 3906SOL    HW111853   4.711   4.886   0.075 -0.2479 -2.0730  0.3425
 3906SOL    HW211854   4.856   4.841   0.086  0.7295  0.4835 -1.2592
 3907SOL     OW11855   2.859   2.444   3.890 -0.4289 -0.4775  0.2773
 3907SOL    HW111856   2.871   2.433   3.984 -0.4125 -3.9123  0.0205
 3907SOL    HW211857   2.789   2.382   3.868  0.3379 -0.6065 -2.0990
 3908SOL     OW11858   1.600   4.401   1.064  0.3543  0.2592 -0.4079
 3908SOL    HW111859   1.653   4.342   1.118  2.1991  1.5853 -0.6847
 3908SOL    HW211860   1.514   4.402   1.106  0.9868 -0.7684  0.9631
 3909SOL     OW11861   1.001   4.490   1.076 -0.0613 -0.1246  0.3001
 3909SOL    HW111862   0.944   4.433   1.127  0.1704 -1.5607 -0.9589
 3909SOL    HW211863   0.945   4.524   1.006  0.3763 -0.8337 -0.4168
 3910SOL     OW11864   3.616   0.413   0.352 -0.3716  0.5095 -0.0052
 3910SOL    HW111865   3.599   0.368   0.269 -0.6572 -0.8745  0.7661
 3910SOL    HW211866   3.700   0.379   0.382 -1.4767 -1.0891  1.5308
 3911SOL     OW11867   3.680   2.035   4.226  0.0603  0.5640 -0.0472
 3911SOL    HW111868   3.706   2.023   4.317 -3.4196 -1.7818  0.8323
 3911SOL    HW211869   3.667   1.946   4.193 -1.2897  1.4118 -1.9901
 3912SOL     OW11870   2.426   2.601   0.538  0.3710 -0.0847  0.0780
 3912SOL    HW111871   2.363   2.671   0.519  0.2972 -0.6007 -1.6931
 3912SOL    HW211872   2.511   2.645   0.538  0.2175  0.2232  0.3012
 3913SOL     OW11873   3.901   2.527   4.392 -0.4143  0.6861 -0.3702
 3913SOL    HW111874   3.944   2.448   4.424  1.7604  1.1102 -2.0056
 3913SOL    HW211875   3.813   2.523   4.429 -0.4768 -2.6175 -0.5523
 3914SOL     OW11876   4.032   0.888   3.464  0.1015 -0.2238 -0.5531
 3914SOL    HW111877   4.062   0.882   3.374 -0.3337  1.1329 -0.8110
 3914SOL    HW211878   3.967   0.818   3.472  2.5021 -2.6030 -0.2456
 3915SOL     OW11879   0.954   4.778   2.184 -0.2439  1.1966 -0.0119
 3915SOL    HW111880   0.964   4.838   2.110  1.2528 -0.4866 -1.2579
 3915SOL    HW211881   0.879   4.723   2.160  1.3809 -0.5891 -1.2758
 3916SOL     OW11882   2.069   3.128   0.319  0.2505 -0.3410  0.2041
 3916SOL    HW111883   1.984   3.134   0.275  0.0395 -0.8930  0.5297
 3916SOL    HW211884   2.129   3.176   0.261 -0.5919  1.5195  0.8045
 3917SOL     OW11885   1.456   0.159   1.997 -0.6603  0.2658 -0.2176
 3917SOL    HW111886   1.450   0.092   2.065  2.6185  0.6841  0.6903
 3917SOL    HW211887   1.453   0.242   2.044 -2.0949  0.7098 -1.0408
 3918SOL     OW11888   2.129   2.845   4.462 -0.3233 -0.0127 -0.0266
 3918SOL    HW111889   2.120   2.804   4.377 -0.4001 -0.8222  0.3613
 3918SOL    HW211890   2.153   2.935   4.443  1.2214 -0.5710 -0.8918
 3919SOL     OW11891   2.039   3.336   4.323  0.2672 -0.4175 -0.7008
 3919SOL    HW111892   2.020   3.396   4.395  0.9569  0.2870 -1.0874
 3919SOL    HW211893   2.106   3.381   4.272  0.3524 -1.2559 -1.3448
 3920SOL     OW11894   2.055   4.415   2.822  0.4172  0.0077 -0.1190
 3920SOL    HW111895   1.966   4.409   2.857  0.9578 -0.6856  1.2029
 3920SOL    HW211896   2.104   4.349   2.870  1.2200 -1.0243 -2.2182
 3921SOL     OW11897   3.061   0.662   4.794 -0.3308 -0.6446 -0.3493
 3921SOL    HW111898   2.976   0.668   4.750  0.0228  0.5196 -0.9026
 3921SOL    HW211899   3.124   0.656   4.723  0.1076 -0.8970  0.0527
 3922SOL     OW11900   0.170   3.384   0.129  0.0412 -0.4797 -0.3300
 3922SOL    HW111901   0.112   3.369   0.054 -0.1129 -0.9256 -0.1325
 3922SOL    HW211902   0.110   3.406   0.201  0.0703 -1.3393 -0.0257
 3923SOL     OW11903   2.087   1.168  -0.013  0.3786  0.4639 -0.1218
 3923SOL    HW111904   2.113   1.225   0.059 -0.4365 -0.4640  0.9500
 3923SOL    HW211905   2.087   1.080   0.025 -0.3483 -0.0111 -1.1766
 3924SOL     OW11906   1.253   2.472   0.979  0.3633  0.3426 -0.0713
 3924SOL    HW111907   1.207   2.440   0.902  1.8900  1.0893 -1.3316
 3924SOL    HW211908   1.345   2.476   0.953  0.9289  0.5915  1.7967
 3925SOL     OW11909   0.451   0.498   4.076 -0.3097  0.1592 -0.1802
 3925SOL    HW111910   0.516   0.475   4.142  0.3057 -0.8523 -1.1045
 3925SOL    HW211911   0.371   0.454   4.106  0.7587 -3.2066 -1.7365
 3926SOL     OW11912   2.352   4.949   0.091  0.1039 -0.7206 -0.7132
 3926SOL    HW111913   2.336   5.031   0.136  1.4738 -0.9076  0.1630
 3926SOL    HW211914   2.434   4.963   0.044 -0.0868 -1.3165 -1.2396
 3927SOL     OW11915   1.520   2.955   3.642 -0.2581  0.0792  0.1212
 3927SOL    HW111916   1.539   2.926   3.731 -0.8680  0.9636  0.5570
 3927SOL    HW211917   1.605   2.977   3.605  0.1929 -1.8790 -0.1172
 3928SOL     OW11918   2.541   4.474   1.916 -0.1417 -0.1476  0.0591
 3928SOL    HW111919   2.486   4.549   1.937  0.7656  0.2689  1.0727
 3928SOL    HW211920   2.523   4.411   1.986  1.1565  0.2843  0.8288
 3929SOL     OW11921   0.905   4.240   2.938 -0.4391 -0.4231 -0.1303
 3929SOL    HW111922   0.952   4.313   2.897 -0.9731 -0.9943 -1.8829
 3929SOL    HW211923   0.830   4.280   2.982 -0.5697  0.1207 -0.8325
 3930SOL     OW11924   0.257   3.823   1.647  0.3769  0.2253 -0.2267
 3930SOL    HW111925   0.295   3.853   1.730  2.5145 -1.1378 -0.6372
 3930SOL    HW211926   0.166   3.800   1.669  1.0403 -0.6228  1.8808
 3931SOL     OW11927   1.934   4.447   0.268  0.1942  0.0456 -0.3312
 3931SOL    HW111928   1.858   4.422   0.215 -1.5207  0.4203  1.8424
 3931SOL    HW211929   1.971   4.522   0.222 -0.0726 -0.7796 -1.9959
 3932SOL     OW11930   4.154   2.600   0.057  0.0559  0.1161 -0.3574
 3932SOL    HW111931   4.147   2.540   0.131 -2.1541 -1.6898 -1.9020
 3932SOL    HW211932   4.215   2.557  -0.003 -0.2414  0.2206 -0.7399
 3933SOL     OW11933   4.654   2.714   2.145  0.1643 -0.1611 -0.8278
 3933SOL    HW111934   4.725   2.664   2.106 -1.3389 -1.2257 -2.3907
 3933SOL    HW211935   4.608   2.652   2.201  0.0553  0.3201 -0.3751
 3934SOL     OW11936   1.847   0.868   2.366 -0.3693  0.5893 -0.2195
 3934SOL    HW111937   1.942   0.882   2.367 -0.5527  2.1144 -0.8157
 3934SOL    HW211938   1.832   0.808   2.294  0.1750 -0.0802  0.2083
 3935SOL     OW11939   4.731   1.055   0.419 -0.0179 -0.0989 -0.1372
 3935SOL    HW111940   4.719   0.978   0.475 -0.0151 -0.9159 -1.2372
 3935SOL    HW211941   4.825   1.055   0.398  0.1657  0.7573  0.6192
 3936SOL     OW11942   2.850   4.193   4.264  0.1726 -0.0386  0.1332
 3936SOL    HW111943   2.899   4.215   4.343  0.9769 -0.0315 -0.3538
 3936SOL    HW211944   2.911   4.141   4.211 -0.0742  0.5906 -0.8133
 3937SOL     OW11945   0.880   2.444   1.043  0.0346 -0.1391 -0.8630
 3937SOL    HW111946   0.886   2.536   1.019 -0.7510 -0.0386 -0.7171
 3937SOL    HW211947   0.791   2.419   1.018  0.3533 -0.9516 -1.2173
 3938SOL     OW11948   3.089   1.898   1.682 -0.2618 -0.1115 -0.1738
 3938SOL    HW111949   3.183   1.906   1.668 -0.1986  0.4518  0.5532
 3938SOL    HW211950   3.061   1.986   1.708 -0.7581 -0.5919  0.9453
 3939SOL     OW11951   0.539   2.970   2.428  0.8505  0.2735  0.0943
 3939SOL    HW111952   0.588   2.905   2.377  1.2870  0.3786  0.3692
 3939SOL    HW211953   0.571   2.958   2.518  2.0340  1.8436 -0.0717
 3940SOL     OW11954   1.409   2.703   1.988  0.0709 -0.2539  0.1650
 3940SOL    HW111955   1.375   2.789   2.010 -2.7028 -1.7650  2.5170
 3940SOL    HW211956   1.334   2.656   1.952  1.8963 -1.2978 -2.6404
 3941SOL     OW11957   0.269   1.894   4.125  0.3365 -0.0928 -0.2347
 3941SOL    HW111958   0.241   1.985   4.128  2.8868  0.7710  0.6624
 3941SOL    HW211959   0.340   1.893   4.061  0.5205 -1.3835 -0.0392
 3942SOL     OW11960   0.014   0.565   2.051  0.0178 -0.9330 -0.0739
 3942SOL    HW111961   0.033   0.521   2.134  1.2351 -0.2876  0.0167
 3942SOL    HW211962   0.092   0.618   2.034 -1.1792  0.8063 -0.4315
 3943SOL     OW11963   3.685   1.253   3.364 -0.3720 -0.0555  0.0159
 3943SOL    HW111964   3.714   1.221   3.278  2.6701 -0.3907  1.0486
 3943SOL    HW211965   3.722   1.341   3.370 -2.4128  0.8512  0.1939
 3944SOL     OW11966   3.165   1.013   3.854 -0.1110  0.6686  0.7971
 3944SOL    HW111967   3.100   0.964   3.905  1.3454 -0.7939  1.3314
 3944SOL    HW211968   3.249   0.977   3.882  0.7965 -1.5975 -3.9443
 3945SOL     OW11969   1.693   3.809   2.849  0.3661 -0.3168  0.0565
 3945SOL    HW111970   1.647   3.807   2.766  0.9013  0.9582 -0.2944
 3945SOL    HW211971   1.624   3.799   2.915  0.0363 -2.2640 -0.5158
 3946SOL     OW11972   1.253   1.501   0.282  0.2274 -0.5672 -0.1023
 3946SOL    HW111973   1.304   1.438   0.333  1.0613 -1.6894 -2.1911
 3946SOL    HW211974   1.289   1.495   0.194  0.1007  2.5980 -0.5097
 3947SOL     OW11975   4.231   2.564   4.608  0.2182  0.5296 -0.1812
 3947SOL    HW111976   4.312   2.515   4.594  0.1966  0.5731 -0.4794
 3947SOL    HW211977   4.172   2.501   4.651  0.9125  0.9666  1.4606
 3948SOL     OW11978   1.823   0.962   0.426 -0.3472  0.6579  0.0159
 3948SOL    HW111979   1.900   1.017   0.439  0.6313 -0.8149  0.6817
 3948SOL    HW211980   1.768   0.978   0.502 -0.2024  0.9455  0.0585
 3949SOL     OW11981   3.212   3.695   2.954 -0.2929 -0.0538 -0.2305
 3949SOL    HW111982   3.214   3.771   2.895 -0.7178  2.2053  2.4482
 3949SOL    HW211983   3.280   3.713   3.018 -0.9990 -1.5336  0.9975
 3950SOL     OW11984   2.869   1.373   3.917 -0.5249 -0.3685  0.1167
 3950SOL    HW111985   2.939   1.425   3.956 -0.4942  0.4821 -1.0160
 3950SOL    HW211986   2.915   1.303   3.871 -0.4526 -0.2020 -0.0654
 3951SOL     OW11987   3.526   1.304   4.873 -0.0751 -0.0819  0.0170
 3951SOL    HW111988   3.531   1.292   4.968 -2.0476  0.2339  0.2019
 3951SOL    HW211989   3.432   1.309   4.855  0.2235 -1.1274 -2.0837
 3952SOL     OW11990   4.208   4.420   1.640  0.2253 -0.3658 -0.5944
 3952SOL    HW111991   4.296   4.384   1.652  1.4673  2.2025 -1.1824
 3952SOL    HW211992   4.208   4.454   1.551  0.1297  3.1169  0.5589
 3953SOL     OW11993   3.993   3.416   1.204  0.1915 -0.4415 -0.0049
 3953SOL    HW111994   3.946   3.336   1.178  0.2131 -0.0039 -1.4212
 3953SOL    HW211995   3.976   3.423   1.298 -0.4240 -1.7130  0.0027
 3954SOL     OW11996   2.567   0.122   4.432 -0.1371  0.1599 -0.5941
 3954SOL    HW111997   2.487   0.119   4.484  0.1492 -2.0772 -0.1892
 3954SOL    HW211998   2.637   0.132   4.496  0.0990 -1.0672 -0.6225
 3955SOL     OW11999   3.198   1.168   0.640 -0.2326  0.2913  0.3367
 3955SOL    HW112000   3.200   1.254   0.680 -1.0329 -0.1543  1.3797
 3955SOL    HW212001   3.149   1.180   0.559 -2.3971  0.4081  1.5872
 3956SOL     OW12002   2.212   4.372   3.247  0.0618  0.5076  0.2764
 3956SOL    HW112003   2.137   4.374   3.307 -0.4645 -1.0204 -0.2891
 3956SOL    HW212004   2.275   4.314   3.289 -0.3912 -0.7306 -0.7064
 3957SOL     OW12005   1.808   4.100   2.751  0.0887  0.1542  0.3328
 3957SOL    HW112006   1.811   4.024   2.809  1.0922  0.7340  1.0793
 3957SOL    HW212007   1.822   4.175   2.809  0.0346  0.8364 -0.5121
 3958SOL     OW12008   5.005   3.134   3.299 -0.2821 -0.1579 -0.7391
 3958SOL    HW112009   5.050   3.213   3.270  0.3602 -0.0850  0.4114
 3958SOL    HW212010   4.947   3.111   3.225  1.4099 -0.1059 -2.1358
 3959SOL     OW12011   2.210   3.960   0.215  0.1721  0.4134 -0.2637
 3959SOL    HW112012   2.116   3.969   0.195  0.7910  1.5146 -3.1798
 3959SOL    HW212013   2.227   4.028   0.281 -0.8813  0.8617 -0.4344
 3960SOL     OW12014   0.035   3.352   3.088 -0.4074 -0.1673  0.4115
 3960SOL    HW112015  -0.002   3.439   3.070  2.7750  0.8835 -2.1600
 3960SOL    HW212016   0.113   3.370   3.141 -0.8732 -1.7607  1.7285
 3961SOL     OW12017   2.062   4.921   2.650 -0.6534  0.4097  0.1118
 3961SOL    HW112018   2.054   4.992   2.586 -2.5279  2.0770  2.0695
 3961SOL    HW212019   2.070   4.842   2.596  0.8388  1.9700 -2.1461
 3962SOL     OW12020   3.938   1.691   0.440 -0.3381  0.8071 -0.3450
 3962SOL    HW112021   3.983   1.646   0.512 -1.5342 -0.6760 -0.4859
 3962SOL    HW212022   3.999   1.761   0.415  1.1228 -0.0648  0.5792
 3963SOL     OW12023   1.603   1.771   0.513  0.3653  0.2101  0.2225
 3963SOL    HW112024   1.650   1.749   0.432  0.0790  1.4281 -0.2926
 3963SOL    HW212025   1.518   1.729   0.503  1.3911 -2.3615  1.3398
 3964SOL     OW12026   4.287   3.546   0.589 -0.1098 -0.6141  0.1326
 3964SOL    HW112027   4.297   3.451   0.585  1.8377 -0.5409  1.5236
 3964SOL    HW212028   4.359   3.579   0.535 -0.4546  0.0733  0.0882
 3965SOL     OW12029   2.664   0.293   1.234 -0.4198  0.5856 -0.1931
 3965SOL    HW112030   2.712   0.333   1.306  1.4853  1.4028 -1.8118
 3965SOL    HW212031   2.632   0.367   1.182 -0.0295  0.0529 -1.2319
 3966SOL     OW12032   4.760   2.330   0.561  0.1270  1.0118  0.0417
 3966SOL    HW112033   4.810   2.250   0.579  0.6031  1.1478 -0.6282
 3966SOL    HW212034   4.676   2.299   0.528 -0.9238  0.7460  2.7219
 3967SOL     OW12035   1.392   0.453   1.693  0.2044  0.2072  0.1191
 3967SOL    HW112036   1.371   0.379   1.750  1.5235 -0.0386  0.3226
 3967SOL    HW212037   1.308   0.479   1.656 -0.2575 -1.5433 -0.1516
 3968SOL     OW12038   1.030   3.674   0.562  0.5877  0.4171  0.0566
 3968SOL    HW112039   1.082   3.598   0.535  2.8662  1.1698  1.9705
 3968SOL    HW212040   0.940   3.641   0.568  1.3710 -1.9032 -0.0395
 3969SOL     OW12041   1.609   4.947   0.766 -0.5940  0.2023 -0.4042
 3969SOL    HW112042   1.624   4.956   0.860  5.1644 -0.8798 -0.8066
 3969SOL    HW212043   1.619   4.854   0.749  0.2105  0.5682 -2.1965
 3970SOL     OW12044   4.663   4.339   4.790  0.4477  0.4808  0.4183
 3970SOL    HW112045   4.589   4.394   4.811 -0.3973 -1.0477  1.6852
 3970SOL    HW212046   4.722   4.395   4.739 -2.0583  1.4187 -1.6917
 3971SOL     OW12047   0.144   2.147   4.061 -0.2365  0.2001  0.3424
 3971SOL    HW112048   0.208   2.147   3.990  2.1390  0.9979  2.3358
 3971SOL    HW212049   0.112   2.237   4.063 -1.7302 -0.2692 -0.8427
 3972SOL     OW12050   2.716   1.468   0.859 -0.2170 -0.3768  0.2840
 3972SOL    HW112051   2.795   1.512   0.890  1.3532 -2.5905 -0.2848
 3972SOL    HW212052   2.673   1.531   0.803  2.6977  0.0143 -1.7063
 3973SOL     OW12053   4.133   0.345   4.370 -0.1435 -0.1702  0.5483
 3973SOL    HW112054   4.153   0.252   4.358  1.5876  0.3140 -0.8296
 3973SOL    HW212055   4.113   0.377   4.282  0.3226  0.9678  0.8361
 3974SOL     OW12056   3.007   0.975   1.936  0.1076 -0.4033  0.0336
 3974SOL    HW112057   2.918   0.944   1.918 -0.5931  1.0927  0.7068
 3974SOL    HW212058   3.054   0.960   1.854 -1.0129 -0.4181 -0.6378
 3975SOL     OW12059   2.922   3.748   2.886  0.0116 -0.4409 -0.5020
 3975SOL    HW112060   2.999   3.692   2.874  0.1609 -0.4734  0.5713
 3975SOL    HW212061   2.932   3.816   2.819  1.4280  0.0405  0.1587
 3976SOL     OW12062   0.285   3.993   2.851  0.2429 -0.2799  0.1296
 3976SOL    HW112063   0.283   3.926   2.783  0.6713 -0.8803  0.6911
 3976SOL    HW212064   0.219   3.964   2.914  1.7187 -1.2028  1.3033
 3977SOL     OW12065   1.282   2.870   3.865  0.1307  0.9674  0.0088
 3977SOL    HW112066   1.252   2.846   3.953  1.4529 -0.8212  0.0274
 3977SOL    HW212067   1.230   2.948   3.842 -1.3909  0.5233  1.7060
 3978SOL     OW12068   0.288   0.672   2.186  0.0868  0.4315  0.9790
 3978SOL    HW112069   0.259   0.729   2.257  0.7471  1.0507  0.7669
 3978SOL    HW212070   0.288   0.584   2.225  0.6048  0.7822  1.8015
 3979SOL     OW12071   2.599   0.171   2.851 -0.4949  0.1431  0.6184
 3979SOL    HW112072   2.614   0.224   2.773  1.4486 -2.5193 -1.0022
 3979SOL    HW212073   2.525   0.213   2.895 -1.8214  1.6991 -2.7446
 3980SOL     OW12074   1.962   1.715   2.823  0.5760  0.3610 -0.0131
 3980SOL    HW112075   1.960   1.649   2.754  1.9875 -1.4681  1.6084
 3980SOL    HW212076   1.892   1.776   2.799 -0.5364 -1.4844 -1.7843
 3981SOL     OW12077   0.128   2.338   3.660 -0.1528  0.1169 -0.3611
 3981SOL    HW112078   0.070   2.400   3.705  0.2829  0.2105  0.0882
 3981SOL    HW212079   0.072   2.264   3.637 -0.2732 -0.2000  0.8781
 3982SOL     OW12080   4.999   0.217   2.446  0.4184 -0.4139  0.3556
 3982SOL    HW112081   5.065   0.150   2.461  1.4530  0.8884  1.9793
 3982SOL    HW212082   4.928   0.195   2.506 -0.1117 -1.0969 -0.4893
 3983SOL     OW12083   3.058   0.860   1.679  0.3459  0.0465  0.5133
 3983SOL    HW112084   3.063   0.816   1.594  0.1631 -0.1359  0.5959
 3983SOL    HW212085   2.990   0.926   1.669  1.2324  0.9267  0.1138
 3984SOL     OW12086   4.893   2.045   0.546  0.3039 -0.0402 -0.3949
 3984SOL    HW112087   4.885   2.028   0.452 -1.2258 -1.6183 -0.0453
 3984SOL    HW212088   4.811   2.012   0.583  0.7268  0.8716  1.4600
 3985SOL     OW12089   0.051   2.781   2.026  0.2112  0.2035 -0.2258
 3985SOL    HW112090  -0.016   2.848   2.040 -2.6853 -2.5429 -0.1144
 3985SOL    HW212091   0.104   2.784   2.105 -0.4403  1.6681  0.2063
 3986SOL     OW12092   3.307   1.396   3.609  0.0164 -0.2828 -0.5639
 3986SOL    HW112093   3.352   1.461   3.663  0.7278 -2.3910  1.5826
 3986SOL    HW212094   3.219   1.431   3.599 -0.4167 -0.0717  2.7490
 3987K        K12095   2.585   3.752   1.617 -0.0542 -0.1905 -0.5091
 3988K        K12096   0.172   4.464   0.687 -0.3046 -0.0610  0.5296
 3989K        K12097   2.130   2.441   3.645  0.8044 -0.2219  0.1559
 3990K        K12098   2.147   4.885   4.942  0.2183 -0.1851  0.6159
 3991K        K12099   1.607   3.923   0.513 -0.1795  0.3007 -0.2483
 3992K        K12100   0.061   4.318   3.246 -0.2251 -0.2062  0.0520
 3993K        K12101   1.296   2.249   2.890 -0.2022 -0.2055  0.1822
 3994K        K12102   4.929   4.686   3.338 -0.1015  0.2977 -0.1923
 3995K        K12103   1.891   2.378   1.086 -0.1920  0.0250  0.2215
 3996K        K12104   2.810   0.567   3.394  0.2761 -0.0417 -0.1020
 3997K        K12105   5.022   1.624   1.640 -0.7403 -0.0778  0.0661
 3998K        K12106   3.936   3.050   0.478  0.2445  0.1053  0.3032
 3999K        K12107   4.996   1.989   1.857 -0.4557 -0.2353  0.1977
 4000CL      CL12108   4.787   4.181   0.522 -0.1916 -0.0436 -0.4929
 4001CL      CL12109   2.066   4.672   0.094  0.0281 -0.0073 -0.3408
 4002CL      CL12110   1.149   3.248   2.606 -0.2197 -0.1656 -0.0501
 4003CL      CL12111   4.847   1.889   1.586  0.1861  0.3383  0.1198
 4004CL      CL12112   4.803   4.400   3.253 -0.3663 -0.0765 -0.0832
 4005CL      CL12113   3.343   3.032   2.294  0.1166 -0.0023  0.7472
 4006CL      CL12114   2.409   4.826   4.672 -0.1002 -0.1927  0.2568
 4007CL      CL12115   1.903   2.688   3.168  0.1321  0.3602 -0.1518
 4008CL      CL12116   0.090   1.704   1.905 -0.0165  0.4180  0.0894
 4009CL      CL12117   0.175   4.573   3.322 -0.0418 -0.5260 -0.0618
 4010CL      CL12118   4.618   1.849   0.348 -0.3567  0.7456  0.0307
   5.03041   5.03041   5.03041
