CLN025
12118
    1TYR      N    1   2.857   4.302   4.376 -0.2754 -0.2767 -0.4262
    1TYR     H1    2   2.837   4.399   4.395  0.0528 -0.7027  2.7582
    1TYR     H2    3   2.786   4.252   4.428  2.3677 -2.3597  1.4503
    1TYR     H3    4   2.947   4.268   4.406 -0.7925 -1.6942 -0.3947
    1TYR     CA    5   2.839   4.282   4.230 -0.4126 -0.3167 -0.2326
    1TYR     HA    6   2.733   4.283   4.209 -0.8544 -1.2305  1.6886
    1TYR     CB    7   2.900   4.399   4.150 -0.1161  0.4805 -0.3144
    1TYR    HB1    8   3.005   4.406   4.180  0.1189  1.3845 -1.2787
    1TYR    HB2    9   2.847   4.493   4.163  0.0202  0.7102 -1.3257
    1TYR     CG   10   2.897   4.376   4.003 -0.2641 -0.0840 -0.7043
    1TYR    CD1   11   2.782   4.403   3.930  0.8451  0.7990  0.7201
    1TYR    HD1   12   2.692   4.425   3.985  0.0641  1.3255 -0.7414
    1TYR    CE1   13   2.779   4.384   3.787 -1.1645 -0.4872 -0.1892
    1TYR    HE1   14   2.687   4.387   3.732 -0.8799 -2.3038 -0.8348
    1TYR     CZ   15   2.895   4.344   3.718 -0.3622 -0.3114 -0.4152
    1TYR     OH   16   2.898   4.322   3.580 -0.2024  0.1569  0.1487
    1TYR     HH   17   2.985   4.285   3.562  0.8082 -1.1793  5.8542
    1TYR    CE2   18   3.016   4.319   3.794 -0.0041 -0.8824  0.0623
    1TYR    HE2   19   3.102   4.288   3.736  0.0535 -2.1804  0.7950
    1TYR    CD2   20   3.020   4.339   3.937  0.0155 -0.9550  0.4112
    1TYR    HD2   21   3.116   4.346   3.985 -0.1409  0.4760  0.5731
    1TYR      C   22   2.902   4.150   4.196 -0.0647  0.4436 -0.8167
    1TYR      O   23   3.000   4.105   4.260 -0.3684  0.2159 -0.4544
    2TYR      N   24   2.850   4.090   4.090  0.0075  0.4386  1.0231
    2TYR      H   25   2.773   4.137   4.046  0.1911 -0.7893 -0.7471
    2TYR     CA   26   2.916   3.974   4.026  0.5555  0.1492  0.6901
    2TYR     HA   27   3.010   3.952   4.077  1.0554  1.2195  0.2519
    2TYR     CB   28   2.819   3.853   4.029  0.4026  0.1502 -0.7875
    2TYR    HB1   29   2.729   3.876   3.972  0.8027  2.4561 -0.5862
    2TYR    HB2   30   2.778   3.838   4.129 -0.4628  1.1941 -0.9674
    2TYR     CG   31   2.880   3.722   3.998 -0.0517  0.2745  0.5957
    2TYR    CD1   32   2.972   3.652   4.083  0.2261 -0.5325 -0.0304
    2TYR    HD1   33   3.005   3.705   4.171  0.4838  0.6809 -0.8196
    2TYR    CE1   34   3.025   3.529   4.050 -0.3857  0.5052 -0.2929
    2TYR    HE1   35   3.099   3.483   4.115 -2.5954 -0.9524  1.3370
    2TYR     CZ   36   2.987   3.459   3.934 -0.3569 -0.5404 -0.4179
    2TYR     OH   37   3.021   3.334   3.906 -0.5287  0.0205 -0.1925
    2TYR     HH   38   2.997   3.309   3.816 -1.2727 -1.2214  0.3313
    2TYR    CE2   39   2.912   3.542   3.838 -0.1976  0.0465 -0.3061
    2TYR    HE2   40   2.883   3.493   3.746 -0.1681  0.3199 -0.4616
    2TYR    CD2   41   2.857   3.671   3.872 -0.0112 -0.1187  0.8395
    2TYR    HD2   42   2.793   3.725   3.804 -0.5266  3.9755  4.2062
    2TYR      C   43   2.956   4.004   3.878 -0.0836 -0.1935 -0.2800
    2TYR      O   44   2.875   4.056   3.801  0.3275  0.6591 -0.1289
    3ASP      N   45   3.069   3.945   3.832 -0.6446 -0.5270 -0.1945
    3ASP      H   46   3.129   3.891   3.893 -1.1933  1.4215  2.2093
    3ASP     CA   47   3.099   3.933   3.685 -0.6368 -0.7692  0.1823
    3ASP     HA   48   3.035   4.003   3.631  1.9788  1.7626  0.0990
    3ASP     CB   49   3.248   3.985   3.658  0.7228  0.0264 -0.4564
    3ASP    HB1   50   3.313   3.932   3.728  0.5561 -1.6987 -1.5359
    3ASP    HB2   51   3.271   4.089   3.680  2.3990 -0.9988  3.4202
    3ASP     CG   52   3.288   3.957   3.518  0.1891 -0.0505 -0.2055
    3ASP    OD1   53   3.210   3.989   3.424 -0.4895  0.1391  0.1880
    3ASP    OD2   54   3.402   3.912   3.492  0.1893  0.1117  0.2406
    3ASP      C   55   3.083   3.792   3.630  0.0123  0.5073 -0.1634
    3ASP      O   56   3.163   3.707   3.674 -0.2397  0.1539  0.9356
    4PRO      N   57   2.986   3.770   3.540  0.1838  0.1803  0.9127
    4PRO     CD   58   2.864   3.853   3.516 -0.4267 -0.2765 -0.1224
    4PRO    HD1   59   2.883   3.909   3.425  1.2914  0.2486  0.5142
    4PRO    HD2   60   2.828   3.917   3.596  1.5964  2.5100 -1.2857
    4PRO     CG   61   2.756   3.744   3.496  0.2509 -0.5787 -0.4728
    4PRO    HG1   62   2.662   3.783   3.456 -1.1129 -1.4388  1.7205
    4PRO    HG2   63   2.735   3.693   3.590 -0.8781 -0.5678 -0.6962
    4PRO     CB   64   2.829   3.641   3.416  0.2153  0.3292 -0.4205
    4PRO    HB1   65   2.839   3.673   3.312 -0.8541 -1.0738 -0.9844
    4PRO    HB2   66   2.777   3.546   3.424  0.5489  0.0016 -1.8400
    4PRO     CA   67   2.964   3.635   3.480  0.4155  0.1642 -0.1633
    4PRO     HA   68   2.968   3.566   3.565  1.0503  0.3845 -0.0060
    4PRO      C   69   3.066   3.595   3.372  0.2183  0.3722 -0.7184
    4PRO      O   70   3.068   3.474   3.339 -0.1956  0.3178  0.0905
    5GLU      N   71   3.147   3.687   3.320 -0.1804  0.2097 -0.4160
    5GLU      H   72   3.142   3.782   3.356  2.9428 -0.5898  2.6703
    5GLU     CA   73   3.251   3.663   3.214  0.3680 -0.0149 -0.8098
    5GLU     HA   74   3.206   3.596   3.141  0.6777 -1.9077  0.6449
    5GLU     CB   75   3.302   3.796   3.147  0.8519 -0.4294  0.3620
    5GLU    HB1   76   3.372   3.841   3.217 -0.4082  1.5103  0.4519
    5GLU    HB2   77   3.218   3.863   3.128 -0.8730 -2.8187 -1.0686
    5GLU     CG   78   3.350   3.773   3.006  0.4276 -1.3391  0.5840
    5GLU    HG1   79   3.258   3.754   2.951  0.2234  1.5782 -0.2395
    5GLU    HG2   80   3.421   3.690   2.996  2.8328  0.8952 -3.2783
    5GLU     CD   81   3.419   3.898   2.952  0.0507 -0.3151 -0.0003
    5GLU    OE1   82   3.513   3.957   3.013  0.1245 -0.1247 -0.0527
    5GLU    OE2   83   3.393   3.930   2.830  0.5669 -0.1408  0.0613
    5GLU      C   84   3.368   3.586   3.272  0.0279 -0.1995 -0.6498
    5GLU      O   85   3.397   3.473   3.233 -0.1380 -0.2601  0.3363
    6THR      N   86   3.423   3.638   3.380 -0.1758 -0.7218 -0.5383
    6THR      H   87   3.393   3.729   3.411 -0.7825 -0.9785 -0.3439
    6THR     CA   88   3.525   3.578   3.464  0.4387 -0.1054  0.1097
    6THR     HA   89   3.594   3.523   3.400 -0.3999 -2.0911  0.8564
    6THR     CB   90   3.619   3.684   3.524  0.8192  0.1832 -0.1770
    6THR     HB   91   3.578   3.728   3.615  0.3512 -2.1830  0.8273
    6THR    CG2   92   3.758   3.631   3.549  0.0194  0.2647 -0.1789
    6THR   HG21   93   3.802   3.616   3.450  2.2023  2.5497  0.3618
    6THR   HG22   94   3.812   3.713   3.596  0.2964 -0.1983  0.3102
    6THR   HG23   95   3.759   3.541   3.610 -1.1663 -1.8182 -2.9838
    6THR    OG1   96   3.628   3.787   3.429 -0.1678 -0.4829  0.0703
    6THR    HG1   97   3.545   3.832   3.443 -0.2848 -0.8543  0.5837
    6THR      C   98   3.464   3.481   3.571 -0.3123  0.0418  0.3035
    6THR      O   99   3.535   3.389   3.617  0.1914 -0.0803  0.0546
    7GLY      N  100   3.342   3.493   3.616  0.3400  0.0730  0.3448
    7GLY      H  101   3.289   3.576   3.593 -0.0760  0.8575  3.7139
    7GLY     CA  102   3.282   3.425   3.731 -0.4704  0.2540 -0.2775
    7GLY    HA1  103   3.286   3.316   3.722  1.2820  0.3625 -1.3834
    7GLY    HA2  104   3.180   3.462   3.718  0.8336  3.3457 -3.2469
    7GLY      C  105   3.340   3.466   3.868 -0.7052  0.3703  0.6712
    7GLY      O  106   3.404   3.379   3.929  0.0854  0.4677  0.4307
    8THR      N  107   3.325   3.594   3.906  0.0893 -0.1269 -0.0219
    8THR      H  108   3.264   3.646   3.845 -2.2367 -4.6167 -2.0531
    8THR     CA  109   3.404   3.661   4.009  0.1870 -0.0327  0.2868
    8THR     HA  110   3.416   3.588   4.089  2.6892 -0.4292 -0.3627
    8THR     CB  111   3.537   3.728   3.956  0.9352 -0.6411  0.1470
    8THR     HB  112   3.591   3.770   4.040  1.8104 -0.2564 -0.5983
    8THR    CG2  113   3.633   3.637   3.896 -0.2662 -0.4569  0.0675
    8THR   HG21  114   3.572   3.576   3.829  0.1153 -0.0659 -0.6493
    8THR   HG22  115   3.710   3.689   3.838 -0.5699 -1.3163 -1.1613
    8THR   HG23  116   3.685   3.582   3.974 -1.8729 -1.5561  0.4176
    8THR    OG1  117   3.508   3.838   3.866  0.2654 -0.8169  0.3590
    8THR    HG1  118   3.439   3.894   3.902  1.1607  0.0620  0.7792
    8THR      C  119   3.315   3.767   4.077  0.3233 -0.3075  0.5546
    8THR      O  120   3.257   3.856   4.013 -0.2886  0.6987 -0.3599
    9TRP      N  121   3.323   3.766   4.211 -0.4739 -0.0653 -0.2952
    9TRP      H  122   3.379   3.693   4.252 -1.9597 -0.4091  1.2548
    9TRP     CA  123   3.265   3.854   4.311 -0.2398 -0.6258 -0.1118
    9TRP     HA  124   3.167   3.885   4.276  0.4790 -0.3308 -1.9678
    9TRP     CB  125   3.231   3.781   4.438  0.0550  0.8642  1.0408
    9TRP    HB1  126   3.201   3.858   4.509 -0.3043  3.5874 -1.8320
    9TRP    HB2  127   3.323   3.739   4.480  0.3962  1.7185  1.1703
    9TRP     CG  128   3.130   3.669   4.443  0.7173 -0.6339 -0.4371
    9TRP    CD1  129   3.166   3.544   4.464  0.5192 -0.1269 -0.4766
    9TRP    HD1  130   3.271   3.518   4.466  0.9598  1.5368 -0.8332
    9TRP    NE1  131   3.051   3.458   4.484  0.1724 -0.8587  0.7448
    9TRP    HE1  132   3.053   3.358   4.471 -2.2185 -0.8186 -0.5510
    9TRP    CE2  133   2.932   3.529   4.466 -0.7223  0.9920  0.4555
    9TRP    CZ2  134   2.797   3.488   4.455 -0.5714  0.1996  0.3820
    9TRP    HZ2  135   2.767   3.385   4.469  0.8090  0.0404  2.5297
    9TRP    CH2  136   2.700   3.591   4.435  0.2415  0.2202 -0.4478
    9TRP    HH2  137   2.594   3.573   4.438  0.1899 -0.1480 -2.7645
    9TRP    CZ3  138   2.746   3.731   4.439  0.0259  0.7598  0.1529
    9TRP    HZ3  139   2.679   3.816   4.438 -1.7590 -0.5840 -1.6847
    9TRP    CE3  140   2.880   3.763   4.440 -0.7887 -0.0066 -0.0736
    9TRP    HE3  141   2.911   3.865   4.421 -0.3519 -0.5539 -2.6145
    9TRP    CD2  142   2.985   3.665   4.456 -0.3253 -0.2678  0.4738
    9TRP      C  143   3.347   3.976   4.339  0.0937 -0.2813 -0.0781
    9TRP      O  144   3.469   3.988   4.324 -0.2122  0.5541 -0.4679
   10TYR      N  145   3.270   4.086   4.342 -0.3442 -0.2224  1.0076
   10TYR      H  146   3.173   4.072   4.316 -0.6442  1.7632  0.8939
   10TYR     CA  147   3.306   4.222   4.351  0.3542 -0.6421  0.7888
   10TYR     HA  148   3.410   4.236   4.383  0.3943 -0.0919  0.4390
   10TYR     CB  149   3.279   4.272   4.207  0.3477  0.0363  1.0757
   10TYR    HB1  150   3.259   4.379   4.202 -0.8836 -0.1795  1.0976
   10TYR    HB2  151   3.192   4.226   4.160 -0.9946  2.3513  1.1320
   10TYR     CG  152   3.406   4.253   4.123 -0.4798 -0.5899  0.1650
   10TYR    CD1  153   3.526   4.328   4.161 -0.1264 -0.3263  0.0003
   10TYR    HD1  154   3.525   4.372   4.260 -2.9085 -1.7926  0.7417
   10TYR    CE1  155   3.633   4.341   4.074 -0.9075 -0.5021  0.2092
   10TYR    HE1  156   3.720   4.397   4.106 -1.6944  0.5453  0.5898
   10TYR     CZ  157   3.626   4.281   3.947 -0.3619  0.0479 -0.0511
   10TYR     OH  158   3.719   4.292   3.853 -0.4220 -0.7843 -0.3345
   10TYR     HH  159   3.724   4.218   3.792  0.8907 -1.6533  0.7606
   10TYR    CE2  160   3.507   4.206   3.913  0.4256  0.1165  0.2814
   10TYR    HE2  161   3.500   4.158   3.817  1.2277  0.6681 -0.0641
   10TYR    CD2  162   3.398   4.196   3.996  0.4911 -0.6428 -0.0101
   10TYR    HD2  163   3.309   4.158   3.948  0.2470  0.9685 -0.9125
   10TYR      C  164   3.220   4.298   4.453 -0.9496 -0.1879  0.2542
   10TYR    OC1  165   3.250   4.286   4.574  0.1721 -0.1007  0.6489
   10TYR    OC2  166   3.125   4.370   4.412 -0.4983  1.3252  0.2943
   11SOL     OW  167   3.575   1.981   2.416 -0.1015 -0.6675 -0.2903
   11SOL    HW1  168   3.577   2.054   2.478 -0.6552  0.5594 -1.6885
   11SOL    HW2  169   3.487   1.982   2.380 -0.4850 -2.7174  0.4128
   12SOL     OW  170   2.562   1.189   4.097  0.4526  0.0957  0.2208
   12SOL    HW1  171   2.519   1.216   4.179 -0.6229  0.6610 -0.5096
   12SOL    HW2  172   2.521   1.105   4.075  0.8152 -0.1066  0.3115
   13SOL     OW  173   3.034   0.526   2.291 -0.3801  0.1734  0.2391
   13SOL    HW1  174   2.954   0.517   2.342  0.2272  0.9302  1.4013
   13SOL    HW2  175   3.042   0.444   2.243 -0.8570 -0.6963  1.5871
   14SOL     OW  176   0.818   4.187   1.446 -0.1442  0.0428 -0.1319
   14SOL    HW1  177   0.787   4.216   1.361  1.0181  0.1795 -0.5284
   14SOL    HW2  178   0.741   4.193   1.503 -1.1409 -0.8291 -1.3317
   15SOL     OW  179   0.082   3.339   5.000 -0.1384  0.1066 -0.1260
   15SOL    HW1  180   0.113   3.369   4.915  2.1099 -1.9549 -0.1087
   15SOL    HW2  181   0.108   3.409   5.060 -1.6880  1.5498 -1.0235
   16SOL     OW  182   0.836   3.231   0.083 -0.3533  0.4635 -0.0683
   16SOL    HW1  183   0.809   3.196   0.168 -1.2498  1.3373  0.0243
   16SOL    HW2  184   0.820   3.160   0.021  0.0332 -0.0774  0.4440
   17SOL     OW  185   0.536   4.540   0.547 -0.2655  0.2339 -0.6355
   17SOL    HW1  186   0.524   4.448   0.521 -0.2022  0.1474 -0.3590
   17SOL    HW2  187   0.630   4.556   0.534 -0.3820  0.4369 -1.2560
   18SOL     OW  188   1.096   0.557   0.928 -0.2221  0.7739 -0.8348
   18SOL    HW1  189   1.110   0.491   0.996  0.0128  1.9664  0.3272
   18SOL    HW2  190   1.086   0.639   0.977  0.4012  1.7379 -2.2655
   19SOL     OW  191   0.666   1.567   1.036  0.2875  0.0435  0.1892
   19SOL    HW1  192   0.637   1.551   1.125 -1.8411  2.0874 -0.0527
   19SOL    HW2  193   0.640   1.488   0.988 -1.0678  0.0505  0.8657
   20SOL     OW  194   1.777   0.597   1.327  0.8249  0.2267 -0.2204
   20SOL    HW1  195   1.747   0.593   1.417  0.4238 -0.0831 -0.3651
   20SOL    HW2  196   1.823   0.681   1.320 -0.4987  0.9820 -0.1360
   21SOL     OW  197   0.406   1.967   2.220  0.0018 -0.7628  0.3145
   21SOL    HW1  198   0.339   2.034   2.232  1.2603  0.7163 -0.6141
   21SOL    HW2  199   0.487   2.010   2.246  0.6994 -2.3304  0.8366
   22SOL     OW  200   1.423   2.571   3.229  0.0729  0.5968  0.9447
   22SOL    HW1  201   1.505   2.559   3.277 -0.1310  1.7623  1.6122
   22SOL    HW2  202   1.448   2.617   3.149  0.0808  0.7970  1.0648
   23SOL     OW  203   2.138   2.357   4.770  0.2362 -0.6179  0.4680
   23SOL    HW1  204   2.141   2.444   4.811 -0.4074 -0.9067  1.1426
   23SOL    HW2  205   2.229   2.339   4.748  0.2482  0.7049 -0.7148
   24SOL     OW  206   0.912   2.382   2.366  0.1294  0.5682 -0.0764
   24SOL    HW1  207   0.855   2.381   2.289  1.3428 -0.6827 -0.9740
   24SOL    HW2  208   0.859   2.342   2.435 -1.3386  2.5893  0.0895
   25SOL     OW  209   1.639   3.478   3.096 -0.1774 -0.5726 -0.1614
   25SOL    HW1  210   1.596   3.518   3.020 -0.5135  1.7051  1.1145
   25SOL    HW2  211   1.733   3.491   3.080 -0.2914  2.1797  0.8248
   26SOL     OW  212   3.216   3.257   4.227 -0.3055 -0.5504  0.1637
   26SOL    HW1  213   3.191   3.180   4.279 -2.8057  0.2174  0.2405
   26SOL    HW2  214   3.133   3.291   4.193  1.0064  0.2683 -2.5616
   27SOL     OW  215   2.138   4.671   4.560 -0.2590  0.7464  0.1737
   27SOL    HW1  216   2.181   4.757   4.564  3.4025 -0.8989  1.1430
   27SOL    HW2  217   2.201   4.612   4.602 -2.9686 -2.3052  0.2884
   28SOL     OW  218   2.386   2.903   0.157 -0.5870 -0.2373  0.8372
   28SOL    HW1  219   2.309   2.949   0.190  0.4425  2.3272 -0.0444
   28SOL    HW2  220   2.435   2.879   0.236 -0.6528  1.1862  1.3438
   29SOL     OW  221   0.145   0.429   2.726  0.3145 -0.1282 -0.1284
   29SOL    HW1  222   0.093   0.473   2.659 -1.0035  1.5582  1.8923
   29SOL    HW2  223   0.229   0.412   2.683 -1.2564 -1.3962 -2.9548
   30SOL     OW  224   4.590   1.621   0.218 -0.6539  0.1140 -0.5888
   30SOL    HW1  225   4.521   1.628   0.283  0.5547 -0.4073  0.7901
   30SOL    HW2  226   4.597   1.710   0.181 -0.9844  0.5483  0.3723
   31SOL     OW  227   0.383   0.192   0.666  0.5706 -0.6686 -0.5597
   31SOL    HW1  228   0.347   0.166   0.751 -0.5168  0.7251 -0.5651
   31SOL    HW2  229   0.308   0.224   0.616  1.3616 -0.4848 -1.6668
   32SOL     OW  230   3.422   2.009   4.717  0.1990 -0.6201  0.0814
   32SOL    HW1  231   3.446   1.997   4.625  0.4592 -1.5248  0.2495
   32SOL    HW2  232   3.406   1.920   4.749  0.9848 -0.4039  1.1434
   33SOL     OW  233   4.399   1.731   2.507  0.3152  0.7051 -0.0574
   33SOL    HW1  234   4.432   1.641   2.499 -0.4965  0.4885 -1.5236
   33SOL    HW2  235   4.305   1.723   2.489 -0.0337  1.6693  1.2330
   34SOL     OW  236   4.062   0.244   2.271 -0.5662  0.8901  0.1201
   34SOL    HW1  237   4.074   0.218   2.180  1.8860  0.6286  0.4665
   34SOL    HW2  238   4.094   0.334   2.275 -1.9807  1.4151  0.4866
   35SOL     OW  239   3.590   0.252   1.864  0.6681 -0.4027  0.0462
   35SOL    HW1  240   3.661   0.191   1.846  0.9753 -0.7091  2.0615
   35SOL    HW2  241   3.634   0.332   1.893  0.2286 -0.1391 -0.0038
   36SOL     OW  242   4.866   3.183   4.893  0.6802  0.5036 -0.4356
   36SOL    HW1  243   4.890   3.124   4.822  1.5229  2.3061 -1.7424
   36SOL    HW2  244   4.949   3.205   4.936  0.4808  1.2400 -0.4023
   37SOL     OW  245   3.689   1.401   4.156  0.0354 -0.5303  0.0054
   37SOL    HW1  246   3.722   1.478   4.202 -1.0582  0.1711 -0.3577
   37SOL    HW2  247   3.767   1.362   4.117  0.4866  0.9793 -0.6807
   38SOL     OW  248   0.323   1.369   4.840  0.6427  0.4308  0.1364
   38SOL    HW1  249   0.405   1.320   4.829  0.6661  0.6936 -1.0538
   38SOL    HW2  250   0.351   1.460   4.854  0.5684  0.4790 -0.0198
   39SOL     OW  251   1.354   4.166   2.542 -0.0084 -0.1828  0.4076
   39SOL    HW1  252   1.419   4.104   2.508 -1.3783 -2.1455  1.1828
   39SOL    HW2  253   1.355   4.152   2.636 -1.2266  0.0812  0.4665
   40SOL     OW  254   4.670   3.224   0.459 -0.4297 -0.2375  0.4185
   40SOL    HW1  255   4.682   3.304   0.408 -1.5390 -0.2738  0.0606
   40SOL    HW2  256   4.754   3.179   0.454  0.4188  1.1799  1.1450
   41SOL     OW  257   0.673   3.961   0.752  0.4381 -0.5738 -0.1889
   41SOL    HW1  258   0.758   3.930   0.785  1.9387  2.5615 -0.7301
   41SOL    HW2  259   0.673   3.937   0.660  1.4260  0.6453 -0.5275
   42SOL     OW  260   2.050   0.208   3.013  0.6383  0.5410  0.3836
   42SOL    HW1  261   1.960   0.198   2.982  0.6346  1.0814  0.2100
   42SOL    HW2  262   2.079   0.119   3.032 -0.2471  0.4466  1.3503
   43SOL     OW  263   0.444   2.329   4.175 -0.0961 -0.2802  0.4000
   43SOL    HW1  264   0.405   2.269   4.111  0.3036  0.7235 -0.8073
   43SOL    HW2  265   0.444   2.279   4.257  0.5637 -2.0827 -0.6356
   44SOL     OW  266   2.925   2.732   2.992 -0.0371 -0.6504  0.0133
   44SOL    HW1  267   2.941   2.760   3.082 -1.7506 -0.4089  0.2677
   44SOL    HW2  268   2.830   2.722   2.986  0.1153 -1.5233 -1.5216
   45SOL     OW  269   3.424   3.505   1.789  0.1093  0.3107 -0.6684
   45SOL    HW1  270   3.491   3.574   1.794 -0.4294  0.7516  1.5932
   45SOL    HW2  271   3.469   3.427   1.822 -0.5559  0.7343  1.4034
   46SOL     OW  272   1.635   1.976   5.001  0.7674  0.0806 -0.5872
   46SOL    HW1  273   1.574   1.977   4.927  0.8121 -0.4707 -0.6405
   46SOL    HW2  274   1.632   2.064   5.037 -0.8440 -0.2164  0.0518
   47SOL     OW  275   3.646   1.513   1.299 -0.9067  0.1694  0.2200
   47SOL    HW1  276   3.728   1.492   1.254 -0.3258  0.7428  0.9788
   47SOL    HW2  277   3.668   1.589   1.354 -2.1649  0.8468 -0.1896
   48SOL     OW  278   1.198   3.787   4.284  0.1586  0.0129 -0.1641
   48SOL    HW1  279   1.240   3.860   4.330 -1.2046  2.4357 -2.4805
   48SOL    HW2  280   1.114   3.776   4.329  0.1688  0.2097 -0.0930
   49SOL     OW  281   2.760   0.625   1.506  0.1763  0.0442  0.4804
   49SOL    HW1  282   2.750   0.568   1.430 -2.6980  0.1962  0.6222
   49SOL    HW2  283   2.778   0.712   1.470 -0.6204  0.0090 -0.0150
   50SOL     OW  284   1.865   2.735   0.226  0.4695  0.0533 -1.1229
   50SOL    HW1  285   1.820   2.752   0.143 -0.7365  1.1163 -0.2882
   50SOL    HW2  286   1.955   2.716   0.200 -0.3190 -1.8162 -2.8351
   51SOL     OW  287   4.187   4.462   1.697  0.2394  0.4520 -0.1291
   51SOL    HW1  288   4.170   4.538   1.753 -2.3656 -0.7329  0.8215
   51SOL    HW2  289   4.236   4.401   1.753 -1.1399 -0.1576  0.4446
   52SOL     OW  290   3.556   1.070   2.305  0.2831 -0.1229  0.0439
   52SOL    HW1  291   3.652   1.065   2.306  0.5110  2.4764 -1.3440
   52SOL    HW2  292   3.529   0.995   2.252  1.6261 -0.3191 -0.4031
   53SOL     OW  293   1.093   2.133   0.609 -0.3046  0.2276 -0.0388
   53SOL    HW1  294   1.187   2.121   0.599 -0.1483  0.8248  0.5925
   53SOL    HW2  295   1.060   2.138   0.519  0.3293  0.4456 -0.2679
   54SOL     OW  296   0.576   0.793   0.685  0.1749  1.3783 -0.7320
   54SOL    HW1  297   0.594   0.700   0.697 -0.2968  1.3672 -0.0612
   54SOL    HW2  298   0.515   0.797   0.612 -0.1051  1.1286 -0.5131
   55SOL     OW  299   2.784   0.495   2.115 -0.0286 -0.2843 -0.8483
   55SOL    HW1  300   2.873   0.499   2.079 -0.2485  0.4517 -1.3353
   55SOL    HW2  301   2.741   0.425   2.064  0.6230 -1.5120  0.2405
   56SOL     OW  302   3.649   0.428   0.716  0.3227 -0.2980  0.2528
   56SOL    HW1  303   3.632   0.351   0.771  0.0132  0.1608  0.8148
   56SOL    HW2  304   3.562   0.461   0.695  0.4634  0.4534  0.8158
   57SOL     OW  305   3.211   2.264   0.109 -0.2490 -0.0504  0.4221
   57SOL    HW1  306   3.215   2.282   0.203 -2.5498 -0.3787  0.6431
   57SOL    HW2  307   3.243   2.344   0.068  2.2475 -0.4280  1.4407
   58SOL     OW  308   0.269   0.150   1.736 -0.2237 -0.0718 -0.2811
   58SOL    HW1  309   0.356   0.111   1.737 -0.2603 -0.2082 -1.1258
   58SOL    HW2  310   0.264   0.195   1.651 -0.7071  0.5458  0.0688
   59SOL     OW  311   0.374   4.569   4.257 -0.1111 -0.3051 -0.1258
   59SOL    HW1  312   0.309   4.560   4.327 -0.0325 -2.0137 -0.2236
   59SOL    HW2  313   0.388   4.479   4.226  4.3611 -0.5319  1.7904
   60SOL     OW  314   2.458   3.989   1.670 -0.3173  0.0830 -0.1774
   60SOL    HW1  315   2.380   3.952   1.629 -0.0739 -0.9003  0.2143
   60SOL    HW2  316   2.458   4.081   1.644 -1.9500  0.2630  0.3381
   61SOL     OW  317   3.532   4.630   3.056 -0.2644 -0.4276 -0.8459
   61SOL    HW1  318   3.529   4.630   3.152  1.9358 -0.3685 -0.7326
   61SOL    HW2  319   3.553   4.720   3.032  0.8513 -0.7823 -1.2738
   62SOL     OW  320   1.282   3.950   3.676 -0.1870 -0.2252 -0.3341
   62SOL    HW1  321   1.229   3.993   3.609  1.0904  1.5534 -0.2910
   62SOL    HW2  322   1.357   3.914   3.627  0.8989  1.3288  0.1011
   63SOL     OW  323   4.192   4.008   4.143 -0.5509 -0.2988 -0.2128
   63SOL    HW1  324   4.205   4.058   4.224 -3.8147 -0.4102  0.5234
   63SOL    HW2  325   4.204   4.072   4.073 -1.3064  0.7217  0.5668
   64SOL     OW  326   2.487   3.523   1.624  1.0289 -0.1150  0.2885
   64SOL    HW1  327   2.477   3.442   1.675 -1.6442  0.6348  1.1238
   64SOL    HW2  328   2.525   3.495   1.541  1.5701 -1.9896  1.1196
   65SOL     OW  329   0.070   1.409   3.782 -0.3098  0.0767 -0.0463
   65SOL    HW1  330   0.125   1.380   3.709 -0.3370  0.9721 -0.4313
   65SOL    HW2  331   0.121   1.475   3.827 -0.5673  0.0093  0.3531
   66SOL     OW  332   1.138   1.236   2.287  0.4728 -0.5591 -0.2497
   66SOL    HW1  333   1.119   1.326   2.314 -0.7755 -0.4360 -1.4246
   66SOL    HW2  334   1.201   1.245   2.215 -0.2033 -0.5534 -0.8586
   67SOL     OW  335   0.900   3.934   0.497 -0.0902  0.1835  0.6264
   67SOL    HW1  336   0.881   4.026   0.520 -1.4947  0.1351 -0.2236
   67SOL    HW2  337   0.909   3.890   0.581  0.1582  1.0199  1.0494
   68SOL     OW  338   2.747   4.743   4.978  0.3072 -0.4703  0.4116
   68SOL    HW1  339   2.697   4.818   4.945 -0.1776 -0.6479  0.7377
   68SOL    HW2  340   2.807   4.721   4.907 -0.4413 -0.5917 -0.1920
   69SOL     OW  341   3.026   0.181   3.608  0.1734  0.1222 -0.7691
   69SOL    HW1  342   3.067   0.192   3.694  1.2210 -3.3625 -0.6719
   69SOL    HW2  343   2.950   0.239   3.610  1.3305  1.7329  1.6568
   70SOL     OW  344   0.874   4.857   2.046  0.0350 -0.6446  0.8071
   70SOL    HW1  345   0.794   4.824   2.004  0.0439 -2.5731  2.2035
   70SOL    HW2  346   0.915   4.780   2.085  1.7400  0.5707  1.5319
   71SOL     OW  347   1.483   4.306   4.821 -0.5468  0.3518 -0.3349
   71SOL    HW1  348   1.554   4.368   4.831  1.5759 -2.2204  2.2393
   71SOL    HW2  349   1.525   4.223   4.799 -2.7181 -1.2170  0.9382
   72SOL     OW  350   4.333   1.883   0.847  0.1368 -0.5327 -0.1733
   72SOL    HW1  351   4.330   1.913   0.756 -1.3517 -0.6934 -0.1986
   72SOL    HW2  352   4.247   1.843   0.862  0.1671 -0.0541  1.4577
   73SOL     OW  353   4.692   2.581   0.497 -0.6857 -0.5237 -0.9540
   73SOL    HW1  354   4.692   2.532   0.414 -1.6843 -0.4181 -1.0309
   73SOL    HW2  355   4.662   2.517   0.562 -0.7557 -0.3660 -0.8306
   74SOL     OW  356   1.336   4.909   0.529  0.0529 -0.1723  0.2554
   74SOL    HW1  357   1.387   4.905   0.610 -0.4098  1.7552  0.6969
   74SOL    HW2  358   1.249   4.877   0.554  0.0310  0.0060  0.4091
   75SOL     OW  359   2.064   1.555   0.156  0.1345  0.0548  0.6122
   75SOL    HW1  360   2.135   1.499   0.125  0.2133  1.1197 -1.2377
   75SOL    HW2  361   2.087   1.643   0.126 -0.6040  0.9165  2.3715
   76SOL     OW  362   0.311   2.362   1.163  0.5786  0.4179  0.2104
   76SOL    HW1  363   0.294   2.429   1.229  0.1440  1.7730 -1.2206
   76SOL    HW2  364   0.406   2.367   1.148  0.5805  0.5524  0.2655
   77SOL     OW  365   3.884   4.975   4.661 -0.1169  0.1072  0.8772
   77SOL    HW1  366   3.969   5.005   4.631  0.7492 -0.8851  2.2259
   77SOL    HW2  367   3.891   4.975   4.757 -2.2847  1.8194  1.1268
   78SOL     OW  368   2.460   3.448   4.758 -0.5101 -0.2029  0.1711
   78SOL    HW1  369   2.531   3.391   4.728  0.2510  0.4141  0.7595
   78SOL    HW2  370   2.394   3.387   4.791 -0.7175 -0.8301 -1.3149
   79SOL     OW  371   3.797   3.887   2.665  0.4302  0.4950  0.2946
   79SOL    HW1  372   3.776   3.953   2.731  3.4586  1.6910  0.2321
   79SOL    HW2  373   3.851   3.823   2.711  1.5781  0.7031 -0.7079
   80SOL     OW  374   2.303   0.095   4.335 -0.9118 -0.1473  0.0052
   80SOL    HW1  375   2.381   0.075   4.284 -0.4141 -0.3429  0.8225
   80SOL    HW2  376   2.254   0.157   4.281  1.1897  2.2850  0.6796
   81SOL     OW  377   3.065   1.594   3.680 -0.5449  0.7888  0.7506
   81SOL    HW1  378   3.028   1.540   3.610 -1.2650  2.2292 -0.0067
   81SOL    HW2  379   3.154   1.559   3.692 -0.3111  0.6869 -1.0764
   82SOL     OW  380   0.975   0.175   1.381  0.2384  0.5171 -0.4782
   82SOL    HW1  381   0.893   0.195   1.425  0.3426  1.4897 -0.7044
   82SOL    HW2  382   1.004   0.093   1.421 -0.3290  0.6970  0.3288
   83SOL     OW  383   0.113   3.493   1.937  0.3323  0.5533  0.3699
   83SOL    HW1  384   0.190   3.451   1.899  0.8397  1.1061  0.7792
   83SOL    HW2  385   0.141   3.582   1.956 -0.9108  1.2813 -1.0396
   84SOL     OW  386   3.526   0.340   4.689 -0.5620 -0.1542  0.0829
   84SOL    HW1  387   3.516   0.373   4.779 -0.8082 -0.0696  0.0255
   84SOL    HW2  388   3.502   0.414   4.634 -3.8168 -1.1580 -0.0571
   85SOL     OW  389   2.190   2.759   3.770 -0.4568  0.5877 -0.8067
   85SOL    HW1  390   2.206   2.704   3.694  2.2423  0.2515 -0.0890
   85SOL    HW2  391   2.182   2.698   3.843  0.1279  1.0211 -0.3661
   86SOL     OW  392   2.663   1.892   3.387 -0.0001  0.9276  0.1513
   86SOL    HW1  393   2.624   1.905   3.300 -0.5786  1.2484  0.4494
   86SOL    HW2  394   2.724   1.965   3.397 -1.5251  2.1522  0.8751
   87SOL     OW  395   4.964   4.459   2.376  0.6177 -0.1478 -0.0950
   87SOL    HW1  396   4.965   4.382   2.433  0.7424  1.0039  1.5072
   87SOL    HW2  397   4.924   4.528   2.429  0.5179  0.9164 -1.4928
   88SOL     OW  398   0.683   3.938   1.194 -0.0969  0.2495  0.3194
   88SOL    HW1  399   0.653   3.879   1.263  1.3733 -1.2196 -0.2389
   88SOL    HW2  400   0.602   3.967   1.152 -0.8813 -1.9873  0.1379
   89SOL     OW  401   0.828   3.344   0.471 -0.4251  0.0415 -0.2385
   89SOL    HW1  402   0.845   3.261   0.427 -0.1875  0.1303 -0.3185
   89SOL    HW2  403   0.752   3.380   0.426 -0.2813  0.0555 -0.4698
   90SOL     OW  404   1.655   3.827   0.385  0.3434 -0.1651  0.1398
   90SOL    HW1  405   1.652   3.802   0.292  0.3238 -2.3182  0.6698
   90SOL    HW2  406   1.593   3.900   0.392 -0.9908 -1.1133 -1.2423
   91SOL     OW  407   0.423   2.382   2.008  0.2824 -0.1426  0.4411
   91SOL    HW1  408   0.480   2.427   2.070  0.3044  1.1298 -0.4710
   91SOL    HW2  409   0.423   2.438   1.930  0.0720 -1.5792 -0.6315
   92SOL     OW  410   3.620   4.706   0.107 -0.3512  0.2246  0.2269
   92SOL    HW1  411   3.608   4.619   0.144 -3.0348  0.1282 -0.6319
   92SOL    HW2  412   3.643   4.690   0.015  1.8190  0.4674  0.6851
   93SOL     OW  413   4.780   2.458   0.867  0.2999  0.4261  0.1728
   93SOL    HW1  414   4.872   2.467   0.843 -0.2470  1.0213 -1.9019
   93SOL    HW2  415   4.762   2.535   0.921  0.9822  0.3589  0.5105
   94SOL     OW  416   0.980   1.832   4.392  0.3290  0.3043  0.5445
   94SOL    HW1  417   1.003   1.875   4.475 -0.2355 -0.0376  0.8818
   94SOL    HW2  418   0.886   1.820   4.396  0.4642 -0.9070  0.4318
   95SOL     OW  419   3.813   2.571   1.660 -0.4223  0.8406  0.2358
   95SOL    HW1  420   3.878   2.628   1.701  1.5739  0.4378 -2.1089
   95SOL    HW2  421   3.770   2.528   1.733  0.5604  2.6085  1.9640
   96SOL     OW  422   1.056   0.392   2.209 -0.1358  0.0910 -0.0121
   96SOL    HW1  423   1.051   0.453   2.135  2.4048  1.7006  1.0143
   96SOL    HW2  424   1.145   0.356   2.204 -0.1981 -0.4117  1.7725
   97SOL     OW  425   2.887   1.316   4.307  0.3368  0.2928 -0.2077
   97SOL    HW1  426   2.933   1.247   4.355 -3.2056 -1.2784  1.2375
   97SOL    HW2  427   2.868   1.277   4.222  0.3108  0.3456 -0.2259
   98SOL     OW  428   2.460   0.198   4.907 -0.3091 -0.5473  0.3888
   98SOL    HW1  429   2.453   0.219   4.814 -0.5518  1.2587  0.7698
   98SOL    HW2  430   2.382   0.238   4.946 -0.4869 -1.7514  1.3060
   99SOL     OW  431   3.525   1.329   1.127 -0.7154 -1.2176  1.1041
   99SOL    HW1  432   3.567   1.407   1.162  1.3174 -0.1399 -3.1469
   99SOL    HW2  433   3.467   1.300   1.198  0.6183  2.3596  3.9974
  100SOL     OW  434   4.047   3.967   2.141  0.3355  0.2264 -0.1928
  100SOL    HW1  435   4.078   3.965   2.051  0.5508 -0.4389 -0.1104
  100SOL    HW2  436   4.045   3.875   2.168  0.1469  0.4078  0.4350
  101SOL     OW  437   3.555   0.023   3.882 -0.3919  0.1017 -0.8522
  101SOL    HW1  438   3.595   0.103   3.848  0.1128 -0.3127 -1.2503
  101SOL    HW2  439   3.609  -0.048   3.847 -0.5592 -0.3966 -0.1307
  102SOL     OW  440   4.752   2.438   1.846  0.4412  0.0216 -0.9593
  102SOL    HW1  441   4.728   2.456   1.755  0.6229 -0.7704 -1.1714
  102SOL    HW2  442   4.758   2.342   1.851  0.3611  0.0514 -0.0950
  103SOL     OW  443   2.426   0.949   1.889 -0.2879  0.3359  0.3572
  103SOL    HW1  444   2.398   0.867   1.849  0.9451 -0.1233  0.3768
  103SOL    HW2  445   2.442   0.927   1.981  2.5772 -0.1327 -0.1412
  104SOL     OW  446   2.288   1.573   0.417  0.5693 -0.0166  0.6110
  104SOL    HW1  447   2.197   1.586   0.444 -0.1821 -1.4089 -1.0905
  104SOL    HW2  448   2.333   1.653   0.445 -1.3849  1.1522  0.5669
  105SOL     OW  449   3.664   2.051   4.289  0.0248  0.3277  0.1254
  105SOL    HW1  450   3.740   2.065   4.346  1.2697 -2.5369 -0.6214
  105SOL    HW2  451   3.652   2.135   4.244  4.2192  0.3902 -1.3378
  106SOL     OW  452   0.426   3.980   1.691 -0.6127  0.4124  0.3199
  106SOL    HW1  453   0.369   3.903   1.692  0.7148 -0.6993  3.4146
  106SOL    HW2  454   0.415   4.019   1.778  1.9104  1.2289  0.3484
  107SOL     OW  455   0.493   3.118   1.629 -0.1021 -0.3741 -0.2969
  107SOL    HW1  456   0.537   3.163   1.702 -1.6336  0.6154  0.0547
  107SOL    HW2  457   0.536   3.032   1.625  2.5415  0.8398 -0.6245
  108SOL     OW  458   3.037   0.536   1.123 -1.0504  0.8384 -0.0131
  108SOL    HW1  459   3.050   0.614   1.070 -1.7381  0.1554 -1.2494
  108SOL    HW2  460   2.992   0.475   1.064  0.7611 -1.0255  0.4131
  109SOL     OW  461   0.672   3.282   1.917  0.7382 -0.3299  0.8885
  109SOL    HW1  462   0.733   3.318   1.852 -0.6381  0.0050 -0.2729
  109SOL    HW2  463   0.710   3.197   1.939  0.8591 -0.8171 -0.9892
  110SOL     OW  464   4.511   1.100   4.359  0.5475  0.3894  0.8489
  110SOL    HW1  465   4.576   1.074   4.294  0.3816  0.3212  0.7094
  110SOL    HW2  466   4.502   1.023   4.416 -0.5898 -0.2085 -0.0810
  111SOL     OW  467   2.782   0.028   1.105  0.0847 -0.4728  0.1070
  111SOL    HW1  468   2.722  -0.028   1.055  0.4963 -0.9219  0.1134
  111SOL    HW2  469   2.741   0.034   1.192  0.7910 -2.0216  0.5827
  112SOL     OW  470   0.768   0.646   2.493 -0.0621  0.1789  0.6798
  112SOL    HW1  471   0.837   0.625   2.557 -0.8633  2.3940  2.4250
  112SOL    HW2  472   0.688   0.649   2.545 -0.8789  1.2920 -0.5887
  113SOL     OW  473   4.106   0.454   3.050 -0.0777  0.0058 -0.7552
  113SOL    HW1  474   4.091   0.478   2.959 -0.3398 -2.1003 -1.3225
  113SOL    HW2  475   4.021   0.419   3.080 -0.4603  2.0824  0.8171
  114SOL     OW  476   2.260   0.225   2.615  0.0090 -0.6243  0.3534
  114SOL    HW1  477   2.180   0.174   2.631  0.4982 -2.3597 -2.1635
  114SOL    HW2  478   2.330   0.159   2.616  0.9789  0.3587 -0.7239
  115SOL     OW  479   2.323   3.947   0.436 -0.0950  0.3382 -0.5534
  115SOL    HW1  480   2.259   3.879   0.458 -0.1514  0.2890 -0.8569
  115SOL    HW2  481   2.382   3.904   0.373 -0.0450  0.5271 -0.6356
  116SOL     OW  482   4.962   3.512   3.963 -0.1960  0.6345 -0.0177
  116SOL    HW1  483   5.010   3.432   3.940 -1.5649 -0.3356  0.3994
  116SOL    HW2  484   4.954   3.559   3.881 -1.3687 -0.7734 -0.7543
  117SOL     OW  485   4.579   1.526   2.473  0.1168 -0.1003 -0.3383
  117SOL    HW1  486   4.647   1.486   2.526  0.2350 -0.4652 -0.7556
  117SOL    HW2  487   4.532   1.452   2.434 -0.5430  0.1446 -0.0255
  118SOL     OW  488   4.206   0.352   3.642 -0.3967 -0.0108 -0.3706
  118SOL    HW1  489   4.161   0.347   3.726  0.1833  0.0256 -0.0533
  118SOL    HW2  490   4.161   0.423   3.595  0.4425  1.2402  0.6311
  119SOL     OW  491   3.833   4.447   1.722  0.3932 -0.3804  1.0371
  119SOL    HW1  492   3.882   4.426   1.802 -1.2001 -0.1575  2.1083
  119SOL    HW2  493   3.756   4.495   1.752 -0.6371 -0.9388 -0.5535
  120SOL     OW  494   0.950   3.415   4.880 -0.0308 -0.0308  0.0757
  120SOL    HW1  495   0.915   3.375   4.959  0.5835 -1.2031 -0.2206
  120SOL    HW2  496   1.008   3.485   4.911  0.1528 -0.4370  0.6558
  121SOL     OW  497   2.127   2.228   3.548  0.1781 -0.1059 -0.0993
  121SOL    HW1  498   2.051   2.280   3.522  0.4499  1.0850  1.3923
  121SOL    HW2  499   2.103   2.190   3.633  0.7414 -0.8107 -0.2404
  122SOL     OW  500   3.785   0.616   4.441  0.6280 -0.6645  0.3523
  122SOL    HW1  501   3.764   0.620   4.534  1.8959  0.5524  0.6173
  122SOL    HW2  502   3.735   0.540   4.408 -0.0715 -0.9268  1.9357
  123SOL     OW  503   1.071   2.539   1.780 -0.1357  0.1873  0.1641
  123SOL    HW1  504   1.047   2.605   1.715  0.9308 -1.5249 -2.1098
  123SOL    HW2  505   1.159   2.563   1.807 -0.4856  0.7598  0.8272
  124SOL     OW  506   4.345   4.197   1.290 -0.4173 -0.1073  0.1426
  124SOL    HW1  507   4.426   4.170   1.246  0.9015  1.5708  1.4351
  124SOL    HW2  508   4.294   4.116   1.296  0.3204 -0.8651 -2.3143
  125SOL     OW  509   1.612   4.386   3.296 -0.3764 -0.0667 -0.6581
  125SOL    HW1  510   1.651   4.381   3.384 -0.5792 -0.9974 -0.6092
  125SOL    HW2  511   1.530   4.433   3.309 -1.3551 -1.8666  0.0188
  126SOL     OW  512   0.820   4.504   4.707 -0.4338 -0.2112  0.1216
  126SOL    HW1  513   0.901   4.545   4.737  0.4495 -0.3244 -1.9157
  126SOL    HW2  514   0.841   4.411   4.699  0.2766  0.0899 -3.1515
  127SOL     OW  515   0.672   1.553   1.339 -0.0005  0.3560  0.1153
  127SOL    HW1  516   0.685   1.640   1.375  1.1485  1.0264 -1.7623
  127SOL    HW2  517   0.577   1.544   1.330 -0.1275  1.4585  0.2216
  128SOL     OW  518   1.877   1.253   1.356 -0.3123  0.0162 -0.1893
  128SOL    HW1  519   1.782   1.243   1.351 -0.4682  1.1236  0.2490
  128SOL    HW2  520   1.899   1.308   1.280  0.0433 -0.5858 -0.5314
  129SOL     OW  521   0.653   2.474   3.330  0.1441  0.7730  0.1632
  129SOL    HW1  522   0.634   2.518   3.412 -0.8888  2.6059 -0.9966
  129SOL    HW2  523   0.749   2.466   3.328  0.3574  2.7181  0.5888
  130SOL     OW  524   2.678   0.700   3.760 -0.9205 -0.2663 -0.5733
  130SOL    HW1  525   2.713   0.620   3.721 -0.2851  0.6838 -2.0291
  130SOL    HW2  526   2.585   0.699   3.737 -0.5063  0.4261 -2.4747
  131SOL     OW  527   4.171   2.020   0.087 -0.0452  0.2486  0.3375
  131SOL    HW1  528   4.178   2.102   0.135 -2.9872 -0.2372  1.8162
  131SOL    HW2  529   4.145   1.955   0.153  0.7665 -1.5684 -1.0378
  132SOL     OW  530   0.640   4.090   3.572 -0.6219  0.0845 -0.2741
  132SOL    HW1  531   0.687   4.012   3.543 -0.2472  1.0648 -2.4797
  132SOL    HW2  532   0.548   4.062   3.576 -0.1628 -1.4319  2.6489
  133SOL     OW  533   3.075   5.006   1.263  0.0937 -0.3112  0.0282
  133SOL    HW1  534   3.063   4.923   1.217 -0.6695  0.1078 -0.5684
  133SOL    HW2  535   3.103   4.981   1.351  1.1947 -1.1498 -0.5339
  134SOL     OW  536   4.672   0.747   2.070  0.0042 -0.0641 -0.0631
  134SOL    HW1  537   4.688   0.672   2.014  1.3995 -1.3152  1.8720
  134SOL    HW2  538   4.726   0.731   2.148  1.0661  3.3669  0.0847
  135SOL     OW  539   0.266   1.557   1.743 -0.2409  0.5992  0.1717
  135SOL    HW1  540   0.236   1.588   1.829 -1.8236 -2.2038  0.7407
  135SOL    HW2  541   0.194   1.504   1.710  0.9538  0.3556 -2.2542
  136SOL     OW  542   1.495   0.836   4.507 -0.2096 -0.0270 -0.2424
  136SOL    HW1  543   1.415   0.821   4.556 -0.9993  2.9936 -0.4026
  136SOL    HW2  544   1.466   0.880   4.426  1.5853  1.9530  0.0902
  137SOL     OW  545   1.452   2.899   1.668 -0.4346  0.2160 -0.4714
  137SOL    HW1  546   1.454   2.806   1.647 -0.2443  0.1093  0.0127
  137SOL    HW2  547   1.433   2.942   1.584  1.9988 -0.0828 -1.2657
  138SOL     OW  548   3.458   3.098   3.461  0.1450  0.0927 -0.0463
  138SOL    HW1  549   3.371   3.136   3.450 -0.4620 -0.2239  2.8016
  138SOL    HW2  550   3.518   3.172   3.455 -0.4997  0.6098 -0.1322
  139SOL     OW  551   4.076   0.528   3.466 -0.0667  0.2571 -0.3145
  139SOL    HW1  552   4.135   0.545   3.392 -0.0671 -0.8559 -0.5851
  139SOL    HW2  553   4.085   0.605   3.522 -2.7486  2.9155 -3.1468
  140SOL     OW  554   0.819   3.266   1.284  0.3088  0.1287 -0.1888
  140SOL    HW1  555   0.786   3.306   1.364  0.9036  0.5675 -0.1599
  140SOL    HW2  556   0.771   3.309   1.213 -0.3351 -0.3750 -0.0696
  141SOL     OW  557   0.149   1.420   0.417  0.3635  0.1229 -0.5245
  141SOL    HW1  558   0.175   1.476   0.344  0.1994 -0.1446 -0.7933
  141SOL    HW2  559   0.069   1.460   0.451  1.1628  1.0113  0.3765
  142SOL     OW  560   4.461   4.521   2.594 -0.0432  0.0208 -0.2699
  142SOL    HW1  561   4.409   4.598   2.574 -0.9008 -0.9569 -2.0776
  142SOL    HW2  562   4.484   4.530   2.687 -2.7606  0.8843  0.3883
  143SOL     OW  563   3.152   2.984   4.418 -0.6298  0.0792  0.0156
  143SOL    HW1  564   3.185   2.976   4.328  2.1618  1.3874  0.8035
  143SOL    HW2  565   3.212   2.930   4.470 -0.4106  1.6010  1.4035
  144SOL     OW  566   2.095   2.826   4.830 -0.0118  0.2857 -0.5442
  144SOL    HW1  567   2.172   2.873   4.798  0.4241 -2.0109 -3.2137
  144SOL    HW2  568   2.023   2.889   4.819  1.3414  2.5030  2.0771
  145SOL     OW  569   1.611   3.469   0.942 -0.3965  0.6026  0.1845
  145SOL    HW1  570   1.674   3.502   1.006 -0.4910 -1.1602  1.2284
  145SOL    HW2  571   1.565   3.548   0.911  1.9912  1.8835 -0.3160
  146SOL     OW  572   3.050   0.673   2.753  1.0884 -0.1130  0.4454
  146SOL    HW1  573   3.046   0.714   2.839  0.0528  0.9559 -0.0781
  146SOL    HW2  574   2.998   0.594   2.761 -1.0076  1.1549  0.2492
  147SOL     OW  575   0.073   1.413   1.002  0.0463  0.2398 -0.3158
  147SOL    HW1  576   0.076   1.377   1.091  1.1804  0.3483 -0.2887
  147SOL    HW2  577   0.160   1.452   0.990 -0.0794  0.1884 -1.4882
  148SOL     OW  578   1.032   3.383   1.717 -0.0420 -0.3880 -0.1100
  148SOL    HW1  579   1.055   3.412   1.805 -1.1748  1.5038 -0.3780
  148SOL    HW2  580   0.968   3.313   1.730 -1.0885  0.6634  0.6085
  149SOL     OW  581   3.185   3.900   2.411  0.2142  0.3794  0.0279
  149SOL    HW1  582   3.266   3.923   2.457 -0.2919  0.4181  0.9279
  149SOL    HW2  583   3.210   3.828   2.353  1.0891  1.0102 -0.3878
  150SOL     OW  584   0.845   2.678   2.958 -0.2572 -0.0555 -0.1768
  150SOL    HW1  585   0.874   2.721   3.038  2.9857  0.3308 -1.4048
  150SOL    HW2  586   0.924   2.633   2.926 -2.2855 -2.9692 -1.4563
  151SOL     OW  587   4.394   3.293   3.213 -0.2267  0.1080 -0.2918
  151SOL    HW1  588   4.458   3.303   3.144  1.1831 -0.8676  0.8250
  151SOL    HW2  589   4.413   3.365   3.274  0.8223 -1.0339  0.7786
  152SOL     OW  590   3.850   3.497   2.209  0.7441  0.5108  0.3627
  152SOL    HW1  591   3.763   3.459   2.196  0.0808  1.4818  1.6514
  152SOL    HW2  592   3.908   3.421   2.217 -0.1387 -0.1808  0.4152
  153SOL     OW  593   4.052   3.092   4.149  0.2155 -0.2261 -0.0534
  153SOL    HW1  594   4.034   3.014   4.095 -1.3748  0.7042 -0.9466
  153SOL    HW2  595   4.068   3.161   4.085  0.7121  0.3810  0.7203
  154SOL     OW  596   0.384   0.299   2.637  0.2096  0.1418 -0.1065
  154SOL    HW1  597   0.460   0.253   2.673 -0.8698 -1.0207  0.7797
  154SOL    HW2  598   0.405   0.311   2.545  0.8656 -1.4857 -0.2003
  155SOL     OW  599   2.408   3.329   2.206  0.3382 -0.2889 -0.2296
  155SOL    HW1  600   2.412   3.257   2.143  0.4078 -0.9908  0.5626
  155SOL    HW2  601   2.496   3.333   2.244  0.3269  0.1935 -0.2585
  156SOL     OW  602   0.567   2.533   4.060 -0.4992  0.1699  0.2114
  156SOL    HW1  603   0.527   2.463   4.111 -0.8643 -0.0230 -0.3196
  156SOL    HW2  604   0.504   2.605   4.066 -0.8258 -0.0507 -0.4246
  157SOL     OW  605   1.000   0.007   2.414 -0.4224  0.1377  0.2468
  157SOL    HW1  606   0.930   0.068   2.436  0.7157  1.3070  0.8142
  157SOL    HW2  607   1.046   0.049   2.342  1.1363  0.6122  1.4582
  158SOL     OW  608   4.711   2.847   3.822 -0.1686  0.2325  0.0771
  158SOL    HW1  609   4.770   2.916   3.790 -1.3773  2.2193  1.8351
  158SOL    HW2  610   4.646   2.838   3.752  0.5279  0.2070 -0.5759
  159SOL     OW  611   3.940   0.426   1.706 -0.2108  0.0753  0.5929
  159SOL    HW1  612   4.032   0.410   1.728  0.0639 -0.6324 -0.9921
  159SOL    HW2  613   3.892   0.399   1.784  0.7933 -1.4433  0.7211
  160SOL     OW  614   1.444   3.674   0.844  0.6403 -0.4576 -0.2508
  160SOL    HW1  615   1.358   3.655   0.882  0.9541 -0.9638  0.2223
  160SOL    HW2  616   1.425   3.726   0.766 -0.0099  1.1340  0.9088
  161SOL     OW  617   0.789   2.334   0.342  0.2128  0.0053  0.6283
  161SOL    HW1  618   0.702   2.309   0.372  0.5691 -2.5989 -0.2499
  161SOL    HW2  619   0.780   2.344   0.247  0.3503  2.4289  0.8028
  162SOL     OW  620   1.933   0.931   3.694 -0.0342 -0.2406 -0.0594
  162SOL    HW1  621   1.887   0.847   3.688 -0.2815 -0.1780  0.8930
  162SOL    HW2  622   1.907   0.978   3.614  0.6577 -1.3241 -0.9512
  163SOL     OW  623   2.055   0.160   4.145  0.4016 -0.3017  0.4232
  163SOL    HW1  624   2.107   0.118   4.077 -0.2323  1.0564 -0.9382
  163SOL    HW2  625   2.087   0.250   4.149 -2.1472  0.7701 -0.9038
  164SOL     OW  626   2.091   1.842   4.301  0.4462  0.5356  0.2122
  164SOL    HW1  627   2.037   1.915   4.332  0.6628  0.8379 -0.1162
  164SOL    HW2  628   2.042   1.805   4.228 -0.3052 -0.4915  1.2136
  165SOL     OW  629   0.140   4.416   0.241 -0.1901 -0.2998 -0.2946
  165SOL    HW1  630   0.182   4.331   0.240  0.6922  0.1065  0.4864
  165SOL    HW2  631   0.060   4.404   0.293 -1.1212 -1.0949 -1.8552
  166SOL     OW  632   0.327   0.633   4.022 -0.9484 -0.0097  0.1315
  166SOL    HW1  633   0.385   0.574   3.974 -0.2837 -0.0677  0.9825
  166SOL    HW2  634   0.289   0.689   3.954  1.5382  1.2878 -0.3004
  167SOL     OW  635   2.548   2.403   0.604  0.1657  0.3869  0.3151
  167SOL    HW1  636   2.487   2.366   0.668  0.7951 -0.6434  0.3420
  167SOL    HW2  637   2.558   2.495   0.631 -2.5203  1.0438 -0.5843
  168SOL     OW  638   1.499   2.872   3.790  0.5021  0.0572 -0.4254
  168SOL    HW1  639   1.438   2.886   3.863 -0.0614  0.2652 -0.9283
  168SOL    HW2  640   1.488   2.950   3.735  2.6352  1.0534  0.4452
  169SOL     OW  641   2.141   4.930   0.781  0.5303 -0.2048  0.2320
  169SOL    HW1  642   2.184   4.993   0.723 -1.1243 -0.2638 -1.1355
  169SOL    HW2  643   2.096   4.869   0.722 -0.1614 -1.0537  1.5708
  170SOL     OW  644   1.035   0.500   1.968  0.1868 -0.4277 -0.0479
  170SOL    HW1  645   0.962   0.448   1.932  2.6875 -3.0118 -1.7975
  170SOL    HW2  646   1.059   0.560   1.897 -1.2860  1.7412  1.1895
  171SOL     OW  647   1.314   0.742   2.082 -0.0063 -0.3739  0.3537
  171SOL    HW1  648   1.251   0.795   2.032  0.1087  1.0209  1.6365
  171SOL    HW2  649   1.331   0.666   2.026 -1.8164 -0.1215 -0.6008
  172SOL     OW  650   4.696   2.624   4.280  0.1534  0.2570 -0.0536
  172SOL    HW1  651   4.757   2.551   4.278 -2.0885 -1.7027 -0.5257
  172SOL    HW2  652   4.702   2.663   4.193 -1.1760 -1.6799 -1.0964
  173SOL     OW  653   2.276   0.737   1.825 -0.0521 -0.3739 -0.3389
  173SOL    HW1  654   2.230   0.818   1.800  0.4263 -0.0950 -0.3202
  173SOL    HW2  655   2.235   0.711   1.907  0.5400  0.4675  0.2417
  174SOL     OW  656   4.802   0.244   3.490 -0.3992  0.1112  0.2303
  174SOL    HW1  657   4.742   0.306   3.448 -1.6293 -0.7878  0.5890
  174SOL    HW2  658   4.874   0.298   3.521 -0.6095  1.1128 -0.9512
  175SOL     OW  659   0.071   4.436   2.795 -0.5947  0.3155  0.1797
  175SOL    HW1  660  -0.006   4.443   2.738 -1.2634 -1.3589  0.8117
  175SOL    HW2  661   0.112   4.522   2.790 -2.2300  1.1038 -0.5759
  176SOL     OW  662   2.530   0.266   3.067 -0.3623  0.3523  0.8339
  176SOL    HW1  663   2.553   0.284   3.158 -1.1342 -2.5436  1.7302
  176SOL    HW2  664   2.468   0.193   3.072 -0.0050 -0.2846 -2.0287
  177SOL     OW  665   2.192   0.630   2.507  0.0961  0.2457  0.3440
  177SOL    HW1  666   2.109   0.621   2.553 -0.1795  0.4122 -0.1102
  177SOL    HW2  667   2.201   0.724   2.490 -0.7155  0.0408 -1.5325
  178SOL     OW  668   4.367   4.630   3.746 -0.3070 -0.0293  0.5980
  178SOL    HW1  669   4.379   4.536   3.756 -1.6829 -0.0274  2.8882
  178SOL    HW2  670   4.455   4.663   3.725 -0.0437 -1.8998 -1.5770
  179SOL     OW  671   4.990   3.115   3.011  0.1411  0.3576 -0.4096
  179SOL    HW1  672   4.968   3.023   3.028 -0.9111  0.8948  1.3658
  179SOL    HW2  673   4.989   3.156   3.097 -0.9810  2.3600 -1.3152
  180SOL     OW  674   2.899   4.106   0.617  0.2608 -0.1946  0.5752
  180SOL    HW1  675   2.831   4.040   0.604 -0.2371  0.7795 -2.6132
  180SOL    HW2  676   2.855   4.189   0.603  1.3426  0.7722  2.4160
  181SOL     OW  677   1.306   1.324   1.178  0.4370 -0.1648  0.0681
  181SOL    HW1  678   1.353   1.328   1.095 -0.7441  0.3244 -0.5993
  181SOL    HW2  679   1.244   1.251   1.166 -1.0303  1.0843 -0.2054
  182SOL     OW  680   4.211   0.850   3.081 -0.5505 -0.5847 -0.1081
  182SOL    HW1  681   4.179   0.880   3.166  0.6839 -0.3085  0.2792
  182SOL    HW2  682   4.286   0.906   3.063 -0.5855 -0.8850 -1.2170
  183SOL     OW  683   0.703   2.864   0.422  0.2450  1.1219 -0.1798
  183SOL    HW1  684   0.626   2.895   0.471  0.8642  0.7085  1.1026
  183SOL    HW2  685   0.738   2.794   0.476 -0.7388 -1.4841 -2.6599
  184SOL     OW  686   0.457   2.972   4.509  0.3442  0.2270  0.2991
  184SOL    HW1  687   0.501   3.052   4.537 -0.1372  1.1672 -1.4428
  184SOL    HW2  688   0.368   3.000   4.488  0.1348 -0.7859 -0.2056
  185SOL     OW  689   2.386   2.578   1.761 -0.1624  0.3590  0.0562
  185SOL    HW1  690   2.323   2.628   1.814 -0.9371  0.6587 -1.1122
  185SOL    HW2  691   2.452   2.642   1.736  0.3408  0.1634  0.8251
  186SOL     OW  692   1.714   0.213   1.594 -0.6846 -0.0165  0.3545
  186SOL    HW1  693   1.692   0.169   1.676 -0.2755 -1.3141 -0.1946
  186SOL    HW2  694   1.774   0.152   1.550 -1.1293  0.5068 -1.0383
  187SOL     OW  695   1.190   4.167   4.999  0.2885  0.3096  0.3483
  187SOL    HW1  696   1.202   4.174   4.904 -1.3255 -0.1020  0.0836
  187SOL    HW2  697   1.265   4.215   5.036  0.2952  1.5474 -1.1427
  188SOL     OW  698   1.674   3.680   1.560 -0.1043  0.5556 -0.3365
  188SOL    HW1  699   1.688   3.598   1.607 -1.7226  0.1644 -0.4635
  188SOL    HW2  700   1.715   3.746   1.615  0.9258 -0.2883 -0.0575
  189SOL     OW  701   0.044   1.840   1.175 -0.2606 -0.0258  0.1991
  189SOL    HW1  702   0.018   1.901   1.244  2.1938  3.0485 -1.3366
  189SOL    HW2  703   0.008   1.878   1.095 -2.1561 -2.9474 -0.5114
  190SOL     OW  704   0.352   0.532   2.458  0.2796  0.3836 -0.6113
  190SOL    HW1  705   0.275   0.476   2.464  0.4245  0.3617  1.9477
  190SOL    HW2  706   0.412   0.484   2.401 -0.5794 -0.8514 -0.5154
  191SOL     OW  707   3.136   3.972   0.623 -0.7610  0.9665  0.1182
  191SOL    HW1  708   3.137   3.998   0.531  1.2464 -0.4937 -0.3401
  191SOL    HW2  709   3.055   4.010   0.657 -0.9139  2.6702 -1.8948
  192SOL     OW  710   4.732   2.391   2.773  0.3915 -0.3611 -0.2547
  192SOL    HW1  711   4.768   2.409   2.860 -1.3975 -0.1014  0.4857
  192SOL    HW2  712   4.728   2.296   2.767  0.2506 -0.3754  0.0674
  193SOL     OW  713   1.891   3.611   3.085 -0.3313 -0.5360 -0.2743
  193SOL    HW1  714   1.927   3.659   3.011  1.0452 -0.1899  0.5913
  193SOL    HW2  715   1.934   3.526   3.082 -0.7704 -0.7630 -0.2528
  194SOL     OW  716   2.694   3.218   0.033 -0.3529 -0.2950 -0.0863
  194SOL    HW1  717   2.753   3.160  -0.016 -0.1337 -0.0935 -0.0622
  194SOL    HW2  718   2.721   3.306   0.008 -2.2913 -0.1726 -2.0813
  195SOL     OW  719   0.032  -0.012   1.013 -0.0434 -0.3594 -0.4125
  195SOL    HW1  720   0.102  -0.004   0.949  0.8183 -0.5694  0.4915
  195SOL    HW2  721  -0.034   0.052   0.984  0.8943  0.4619 -0.7923
  196SOL     OW  722   3.719   2.696   0.255  0.5000 -0.6609 -0.0951
  196SOL    HW1  723   3.777   2.627   0.288 -1.2300 -0.7373  3.2217
  196SOL    HW2  724   3.741   2.773   0.308 -0.3892  0.1739 -0.8943
  197SOL     OW  725   4.293   2.367   3.408 -0.2609  0.0177 -0.5956
  197SOL    HW1  726   4.224   2.402   3.351 -0.5401  1.2898  0.4765
  197SOL    HW2  727   4.373   2.409   3.376 -0.8792  3.8010  2.1488
  198SOL     OW  728   2.970   3.180   4.418  0.1927 -0.6141 -0.3001
  198SOL    HW1  729   2.901   3.141   4.471  1.6971 -2.2685  0.5341
  198SOL    HW2  730   3.039   3.114   4.416  1.2191  0.4347 -2.2415
  199SOL     OW  731   2.291   4.935   4.577 -0.5426  0.3851 -0.0768
  199SOL    HW1  732   2.211   4.972   4.616 -0.8298  0.1919 -0.4692
  199SOL    HW2  733   2.295   4.975   4.490 -1.2738 -1.0484 -0.8127
  200SOL     OW  734   4.808   1.850   4.334 -0.0649 -0.9782 -0.1787
  200SOL    HW1  735   4.778   1.837   4.424 -0.6149 -0.3452 -0.2701
  200SOL    HW2  736   4.841   1.764   4.308 -2.1316 -1.8246 -0.1957
  201SOL     OW  737   2.756   4.535   1.035  0.3720  0.3194  0.3417
  201SOL    HW1  738   2.711   4.538   1.119  1.3519  0.7058  0.8742
  201SOL    HW2  739   2.812   4.458   1.041  0.5371  0.4195  0.0973
  202SOL     OW  740   1.280   2.455   4.538  0.2379  0.4983  0.8677
  202SOL    HW1  741   1.216   2.391   4.508  0.3046 -0.5292  2.8199
  202SOL    HW2  742   1.346   2.405   4.585  2.0318  1.6476 -0.2481
  203SOL     OW  743   3.882   1.425   1.134 -0.0259 -0.6455 -0.2668
  203SOL    HW1  744   3.901   1.398   1.045  0.3369  0.6290 -0.5988
  203SOL    HW2  745   3.949   1.380   1.187  1.6367  0.8410 -0.9958
  204SOL     OW  746   4.509   1.833   4.233  0.0795 -0.9915  0.0954
  204SOL    HW1  747   4.601   1.859   4.229  0.0955 -1.1848 -1.3706
  204SOL    HW2  748   4.511   1.741   4.260  0.1083 -0.1648  3.3769
  205SOL     OW  749   1.792   3.157   4.443 -0.1540  0.0587 -0.5890
  205SOL    HW1  750   1.887   3.146   4.442 -0.1064  0.4605 -1.9594
  205SOL    HW2  751   1.776   3.215   4.518  0.7240  0.2940 -0.5716
  206SOL     OW  752   0.572  -0.024   0.604  0.0934  0.4195  0.8576
  206SOL    HW1  753   0.496  -0.004   0.658 -0.7371  0.9083 -0.4465
  206SOL    HW2  754   0.614   0.061   0.590 -1.3400  0.8349 -1.5997
  207SOL     OW  755   1.218   1.676   3.063  0.1832  0.1502  0.3350
  207SOL    HW1  756   1.194   1.744   3.000 -2.0438 -1.8936 -1.1943
  207SOL    HW2  757   1.203   1.716   3.149 -2.0000  1.3278 -0.5222
  208SOL     OW  758   0.129   1.248   2.112 -0.2224 -0.4690 -0.1494
  208SOL    HW1  759   0.045   1.233   2.155 -0.6969 -1.1507 -1.2861
  208SOL    HW2  760   0.147   1.167   2.065  0.6031  0.0183 -0.6946
  209SOL     OW  761   4.450   2.625   0.025 -0.0786  0.7654 -0.0771
  209SOL    HW1  762   4.477   2.584  -0.056 -1.6330 -0.6851  0.0724
  209SOL    HW2  763   4.528   2.626   0.080  0.5964  0.3149 -1.0172
  210SOL     OW  764   3.889   2.806   0.888 -0.1352  0.3005 -0.3628
  210SOL    HW1  765   3.883   2.896   0.920  2.1908  0.3434  0.1700
  210SOL    HW2  766   3.847   2.754   0.957 -0.4079  0.8713 -0.0856
  211SOL     OW  767   1.830   0.828   3.298 -0.5378  0.3619  0.6219
  211SOL    HW1  768   1.804   0.745   3.338  2.1639  0.4894  2.9751
  211SOL    HW2  769   1.757   0.887   3.317 -1.7643 -1.0200  0.3856
  212SOL     OW  770   0.379   4.639   4.572 -0.2786  0.4044  0.4572
  212SOL    HW1  771   0.386   4.660   4.479 -1.7090 -0.4268  0.1386
  212SOL    HW2  772   0.290   4.608   4.584  0.7490 -2.5348  1.4725
  213SOL     OW  773   4.734   2.109   2.214 -0.2307 -0.0497 -0.1642
  213SOL    HW1  774   4.807   2.160   2.180 -0.4945  0.1363 -0.4561
  213SOL    HW2  775   4.772   2.023   2.234 -0.0897 -0.1981 -1.0352
  214SOL     OW  776   1.677   4.129   4.728  0.0825 -0.8414  0.0276
  214SOL    HW1  777   1.754   4.166   4.686  0.6896 -1.7730  0.3077
  214SOL    HW2  778   1.691   4.146   4.822 -0.9323  0.6065 -0.0411
  215SOL     OW  779   4.414   4.368   0.537 -0.1506 -0.0348 -0.4743
  215SOL    HW1  780   4.468   4.366   0.615 -0.8683 -0.5431  0.0163
  215SOL    HW2  781   4.352   4.440   0.552 -0.5826 -0.4259 -0.3747
  216SOL     OW  782   1.389   4.541   0.528  0.1543  0.1377 -0.0112
  216SOL    HW1  783   1.443   4.586   0.594  0.5596 -2.3990  1.5324
  216SOL    HW2  784   1.397   4.595   0.450 -0.6027  3.5151  2.0261
  217SOL     OW  785   2.871   0.306   3.820 -0.2282 -0.8652  0.4785
  217SOL    HW1  786   2.966   0.307   3.831 -0.2896  1.4521  1.3195
  217SOL    HW2  787   2.844   0.218   3.848  1.2935 -0.3569  3.9361
  218SOL     OW  788   1.995   4.788   0.594 -0.4726  0.0122  0.2332
  218SOL    HW1  789   2.048   4.777   0.515 -0.5737 -1.3465  0.3328
  218SOL    HW2  790   1.956   4.702   0.609 -1.3290  0.5385  1.1516
  219SOL     OW  791   2.401   0.541   3.508  0.7920 -0.1505  0.1101
  219SOL    HW1  792   2.388   0.634   3.525 -0.8203 -0.3406  0.1156
  219SOL    HW2  793   2.490   0.523   3.538  1.3859  1.5194 -0.5377
  220SOL     OW  794   0.497   1.741   3.850 -0.5809  0.3059  0.4690
  220SOL    HW1  795   0.531   1.682   3.782 -2.2403 -0.8281  0.5459
  220SOL    HW2  796   0.513   1.694   3.932 -2.4925 -0.4143  0.4830
  221SOL     OW  797   2.949   4.852   4.300 -0.0403  0.4905 -0.1979
  221SOL    HW1  798   2.966   4.797   4.224  0.6642 -0.1637  0.4170
  221SOL    HW2  799   2.973   4.940   4.271  4.4095 -0.2342  0.4432
  222SOL     OW  800   0.162   1.211   0.588 -0.1094 -0.1108 -0.0815
  222SOL    HW1  801   0.141   1.286   0.532 -0.1436  0.1501  0.2748
  222SOL    HW2  802   0.240   1.173   0.549  0.2755  0.4843  0.0915
  223SOL     OW  803   0.151   4.607   4.400 -0.4971 -0.5462 -0.4462
  223SOL    HW1  804   0.088   4.553   4.448 -0.1049  1.5425  2.6931
  223SOL    HW2  805   0.126   4.697   4.422  1.0813  0.4686 -2.5126
  224SOL     OW  806   4.264   2.448   3.061  0.5055  0.3238  0.3609
  224SOL    HW1  807   4.225   2.513   3.121  2.0847  3.0383 -1.3373
  224SOL    HW2  808   4.355   2.443   3.089  0.3551 -1.4386  0.6063
  225SOL     OW  809   1.310   2.354   0.949  0.4627 -0.6596  0.0596
  225SOL    HW1  810   1.312   2.285   1.014 -0.0501  0.0723  0.8689
  225SOL    HW2  811   1.393   2.345   0.902  0.1212 -2.2090 -0.2865
  226SOL     OW  812   1.219   2.609   1.064 -0.1188  0.2598 -0.4449
  226SOL    HW1  813   1.237   2.533   1.009 -0.4650 -1.1458  1.2898
  226SOL    HW2  814   1.298   2.662   1.058  0.1217 -0.2039 -1.7192
  227SOL     OW  815   1.466   3.813   1.228 -0.1100  0.0149 -0.0288
  227SOL    HW1  816   1.403   3.875   1.264 -0.7448 -1.2812  1.2303
  227SOL    HW2  817   1.413   3.738   1.201  0.9039 -1.4781  1.8645
  228SOL     OW  818   4.533   0.997   1.397 -0.0807 -0.1307  0.4622
  228SOL    HW1  819   4.502   1.053   1.468 -1.8936  0.6572 -0.8756
  228SOL    HW2  820   4.584   0.929   1.441  1.6802  2.1372  2.2128
  229SOL     OW  821   2.148   0.777   0.830  0.1239 -0.0167 -0.1783
  229SOL    HW1  822   2.180   0.718   0.762  0.9003  0.8729 -0.6090
  229SOL    HW2  823   2.068   0.814   0.794  2.0800  2.7931 -2.0378
  230SOL     OW  824   2.001   2.990   4.494  0.1317  0.3175  0.0535
  230SOL    HW1  825   2.080   3.025   4.454  1.1209 -1.7048  0.1292
  230SOL    HW2  826   1.967   2.927   4.430 -1.9793  1.7953 -0.3865
  231SOL     OW  827   2.158   0.344   4.382  0.2065 -0.1453  0.0589
  231SOL    HW1  828   2.250   0.370   4.375  0.2553  0.6661  2.4655
  231SOL    HW2  829   2.113   0.425   4.406 -0.3945 -1.2530  3.1092
  232SOL     OW  830   0.915   2.473   4.472 -0.1452  0.3175  0.2238
  232SOL    HW1  831   0.911   2.476   4.568 -0.1384 -1.7480  0.3325
  232SOL    HW2  832   0.824   2.457   4.446 -0.2367  1.4275 -0.1591
  233SOL     OW  833   3.800   4.733   0.746  0.2529  0.3995  0.2807
  233SOL    HW1  834   3.774   4.643   0.767 -1.3721  1.2700  2.3514
  233SOL    HW2  835   3.889   4.741   0.778  0.5004 -0.5139 -0.1451
  234SOL     OW  836   0.381   1.009   3.221 -0.4911  0.0454 -0.6153
  234SOL    HW1  837   0.338   1.030   3.138 -1.0991  1.0004 -0.0746
  234SOL    HW2  838   0.320   1.040   3.288  0.0859 -0.5267  0.1966
  235SOL     OW  839   2.561   2.925   2.201  0.7981  0.1080  0.4245
  235SOL    HW1  840   2.576   2.879   2.284 -1.0511  0.2850  0.8859
  235SOL    HW2  841   2.479   2.889   2.167  0.3567  1.6157 -0.2136
  236SOL     OW  842   3.143   0.615   0.679  0.9892 -0.4631  0.1624
  236SOL    HW1  843   3.105   0.703   0.687  1.6703 -0.2351  1.0559
  236SOL    HW2  844   3.118   0.571   0.760 -0.8835 -1.7459 -1.0321
  237SOL     OW  845   1.817   4.455   3.731 -0.6754  0.0507 -0.1009
  237SOL    HW1  846   1.842   4.539   3.692 -3.1899  0.8057 -0.2631
  237SOL    HW2  847   1.849   4.460   3.821  2.0411 -0.2336 -0.9543
  238SOL     OW  848   2.021   2.891   3.428  0.4716  0.2022  0.0869
  238SOL    HW1  849   2.024   2.968   3.484  2.1110 -0.0286  0.3750
  238SOL    HW2  850   1.959   2.832   3.471 -1.7807  1.7996 -0.7991
  239SOL     OW  851   0.532   0.532   2.664 -0.3103 -0.0298 -0.4290
  239SOL    HW1  852   0.459   0.510   2.722  0.5412 -3.0757 -0.3344
  239SOL    HW2  853   0.499   0.515   2.576  0.3500 -1.9114 -0.3575
  240SOL     OW  854   4.247   0.959   1.149  0.4269  0.0420  0.3629
  240SOL    HW1  855   4.179   0.954   1.083  0.9056 -0.8304 -0.0921
  240SOL    HW2  856   4.263   1.052   1.161  1.0923  0.2145 -1.5572
  241SOL     OW  857   1.241   3.074   0.888  0.0718  0.2057 -0.0347
  241SOL    HW1  858   1.324   3.103   0.926 -0.5832  0.2384  1.4668
  241SOL    HW2  859   1.185   3.057   0.964 -0.8275 -1.2375 -0.9662
  242SOL     OW  860   2.101   0.687   2.037 -0.0188 -0.2028  0.4667
  242SOL    HW1  861   2.128   0.761   2.092 -0.2703  0.2468 -0.0085
  242SOL    HW2  862   2.020   0.717   1.995  0.3856 -0.3776 -0.4701
  243SOL     OW  863   1.589   4.037   4.021  0.2767  0.4117  0.3604
  243SOL    HW1  864   1.666   4.089   3.995 -0.7426  1.4721 -0.6802
  243SOL    HW2  865   1.587   4.043   4.116  0.2741  2.2112  0.2872
  244SOL     OW  866   3.290   4.364   3.117 -0.1897  0.5410 -0.5392
  244SOL    HW1  867   3.313   4.273   3.135  1.4816  0.8597 -0.9127
  244SOL    HW2  868   3.286   4.370   3.022  0.5987  1.0469 -0.5522
  245SOL     OW  869   0.290   3.028   4.093 -0.9695  0.4386 -0.0224
  245SOL    HW1  870   0.286   3.123   4.102  0.2207  0.4620  0.4450
  245SOL    HW2  871   0.253   2.994   4.175 -2.7619  0.4589 -0.7900
  246SOL     OW  872   1.173   0.027   1.758  0.1021  0.4480  0.2062
  246SOL    HW1  873   1.131   0.036   1.672 -1.0007 -0.3560  0.6513
  246SOL    HW2  874   1.142   0.103   1.807 -0.7255 -0.0607  0.4824
  247SOL     OW  875   0.751   1.478   0.010 -0.0324  0.4566  0.7570
  247SOL    HW1  876   0.708   1.554  -0.031  2.0884 -0.0909 -2.9268
  247SOL    HW2  877   0.800   1.515   0.083 -0.7815  2.2917  0.3899
  248SOL     OW  878   4.523   0.909   2.837 -0.5012 -0.1472 -0.4354
  248SOL    HW1  879   4.618   0.906   2.826 -0.3856  2.8878 -1.2148
  248SOL    HW2  880   4.511   0.922   2.932 -0.0258  0.9122 -0.5032
  249SOL     OW  881   1.864   0.164   1.955 -0.2788 -0.5570 -0.2756
  249SOL    HW1  882   1.921   0.154   1.879 -1.1350  0.7919 -1.1541
  249SOL    HW2  883   1.825   0.251   1.944 -1.7424 -1.0388  0.8142
  250SOL     OW  884   1.529   2.112   0.739  0.2293 -0.4089 -0.1412
  250SOL    HW1  885   1.459   2.070   0.688  0.3972  0.2657 -0.9451
  250SOL    HW2  886   1.513   2.083   0.829 -1.1861 -0.1505 -0.2790
  251SOL     OW  887   0.425   2.101   4.021 -0.0450 -0.6415 -0.5756
  251SOL    HW1  888   0.511   2.063   4.003  0.7315  1.3760 -1.4470
  251SOL    HW2  889   0.396   2.136   3.937 -0.7785  0.5067  0.1353
  252SOL     OW  890   0.999   2.778   2.548  0.5112 -0.0544 -0.0009
  252SOL    HW1  891   0.941   2.850   2.523 -0.1371 -0.0637  1.3812
  252SOL    HW2  892   1.025   2.739   2.465  2.2476  2.7752 -0.9565
  253SOL     OW  893   1.759   4.266   0.798 -0.4276 -0.2736 -0.3911
  253SOL    HW1  894   1.835   4.266   0.740 -2.0453  1.1661 -2.6818
  253SOL    HW2  895   1.759   4.353   0.838 -2.1253  0.7031 -2.3301
  254SOL     OW  896   1.510   0.339   3.503 -0.7424  0.0289 -0.2656
  254SOL    HW1  897   1.475   0.423   3.475 -0.5743  0.1138 -0.2183
  254SOL    HW2  898   1.529   0.351   3.596 -3.3433 -0.8933  0.4744
  255SOL     OW  899   0.198   1.665   0.682 -0.1284 -0.1569  0.6353
  255SOL    HW1  900   0.195   1.632   0.591 -0.8424 -0.7866  0.8690
  255SOL    HW2  901   0.273   1.724   0.684 -2.3050  3.0094 -1.4265
  256SOL     OW  902   3.028   4.533   4.961 -1.0920  0.5219  0.9038
  256SOL    HW1  903   3.085   4.570   5.028  1.8150 -1.6951 -0.1287
  256SOL    HW2  904   3.021   4.602   4.895  2.5494  0.1910 -0.0525
  257SOL     OW  905   2.782   1.031   2.974  0.5383  0.0661  0.2009
  257SOL    HW1  906   2.706   1.045   2.918  1.5978 -0.7005 -1.5331
  257SOL    HW2  907   2.799   1.116   3.014 -2.3844 -0.1813  2.2981
  258SOL     OW  908   0.411   0.171   0.194 -0.2324  0.4939  0.2145
  258SOL    HW1  909   0.420   0.207   0.282 -0.4502 -0.6436  0.7188
  258SOL    HW2  910   0.461   0.089   0.196 -0.8743  0.0727 -0.4912
  259SOL     OW  911   1.935   4.311   0.077 -0.3395 -0.1415  0.3314
  259SOL    HW1  912   1.900   4.222   0.075  0.4595 -0.4505 -0.5695
  259SOL    HW2  913   2.024   4.302   0.111 -0.1476  0.2769 -0.0481
  260SOL     OW  914   0.655   2.540   4.416  0.0548  0.0772  0.5310
  260SOL    HW1  915   0.561   2.527   4.432  0.0136 -0.5126 -0.1345
  260SOL    HW2  916   0.659   2.611   4.352 -0.2076 -2.4193 -2.5537
  261SOL     OW  917   0.445   0.468   0.701  0.0729  0.0824  0.2192
  261SOL    HW1  918   0.389   0.392   0.714  0.0663 -0.2657 -1.5780
  261SOL    HW2  919   0.417   0.530   0.767 -1.2540 -0.7460  0.4688
  262SOL     OW  920   0.266   0.904   3.849 -0.6320  0.4202  0.0568
  262SOL    HW1  921   0.337   0.946   3.801  0.3862 -0.1971  0.9675
  262SOL    HW2  922   0.209   0.975   3.875 -0.3928  0.9225 -0.7572
  263SOL     OW  923   1.782   4.770   3.400 -0.0635 -0.7346  0.1151
  263SOL    HW1  924   1.814   4.681   3.387  0.9608 -0.1556 -1.5733
  263SOL    HW2  925   1.825   4.800   3.480  0.0694 -1.5342  0.3519
  264SOL     OW  926   0.221   4.488   2.538  0.1722 -0.8733  0.2413
  264SOL    HW1  927   0.307   4.494   2.496  0.1229 -1.3547  0.0674
  264SOL    HW2  928   0.197   4.396   2.531 -1.0548 -0.4833 -1.0806
  265SOL     OW  929   2.923   4.942   4.624 -0.3342 -0.2798  0.4608
  265SOL    HW1  930   2.967   4.955   4.540  0.0553 -0.6992  0.5927
  265SOL    HW2  931   2.977   4.876   4.669 -0.7463 -0.3318  0.8853
  266SOL     OW  932   4.772   0.043   4.245  0.2559 -0.1227 -0.2279
  266SOL    HW1  933   4.815  -0.043   4.242 -0.1667 -0.3254 -1.6705
  266SOL    HW2  934   4.697   0.030   4.303 -0.4202 -1.0599 -1.2644
  267SOL     OW  935   3.633   2.030   0.796 -0.2992 -0.2659  0.1790
  267SOL    HW1  936   3.634   2.010   0.890 -2.1432  3.1536  1.0700
  267SOL    HW2  937   3.699   2.099   0.785 -0.9992  0.2614 -0.7996
  268SOL     OW  938   2.280   0.308   0.118 -0.2459 -0.8697  0.2296
  268SOL    HW1  939   2.360   0.304   0.170  1.9501  0.6298 -2.7060
  268SOL    HW2  940   2.236   0.225   0.136  2.5749 -2.3304  1.1360
  269SOL     OW  941   4.858   4.442   0.637  0.1791  0.0047 -0.1631
  269SOL    HW1  942   4.833   4.500   0.709 -2.3782 -1.0470 -0.0918
  269SOL    HW2  943   4.796   4.369   0.642 -0.0174 -0.2022 -3.3268
  270SOL     OW  944   3.701   0.409   2.615  0.0321  0.2222  0.2123
  270SOL    HW1  945   3.617   0.418   2.659 -1.2234 -0.1053 -1.9809
  270SOL    HW2  946   3.696   0.325   2.570  1.5547  0.1825  0.0715
  271SOL     OW  947   3.216   4.499   1.444  1.2387  0.1323 -0.2685
  271SOL    HW1  948   3.288   4.467   1.497 -0.2049 -0.1792  1.6043
  271SOL    HW2  949   3.234   4.592   1.431  1.4705  0.2809  1.0486
  272SOL     OW  950   0.732   1.383   2.272 -0.6375  0.3614  0.0749
  272SOL    HW1  951   0.757   1.290   2.276  1.3701  0.7468 -1.7372
  272SOL    HW2  952   0.751   1.416   2.360 -0.8400 -0.8012  0.5781
  273SOL     OW  953   1.275   1.945   4.565  0.1263  0.0703 -0.3127
  273SOL    HW1  954   1.351   1.888   4.555  0.7310  0.7536  0.3057
  273SOL    HW2  955   1.203   1.885   4.584  0.5120 -0.5805 -0.8368
  274SOL     OW  956   2.589   3.243   2.829  0.0838  0.6894 -0.0996
  274SOL    HW1  957   2.578   3.178   2.897 -1.5175  2.9975  2.0181
  274SOL    HW2  958   2.684   3.250   2.818  0.3228 -0.7478  0.8392
  275SOL     OW  959   0.751   3.337   4.697  0.0669  0.1111 -0.2036
  275SOL    HW1  960   0.716   3.266   4.750 -0.6805  0.0195 -0.7967
  275SOL    HW2  961   0.828   3.367   4.744  0.5513 -1.2702 -0.0741
  276SOL     OW  962   0.521   3.498   4.074  0.3209 -0.2324  0.3039
  276SOL    HW1  963   0.547   3.584   4.041 -1.0035 -0.3501 -1.1590
  276SOL    HW2  964   0.473   3.517   4.155  2.8925  0.1261  1.8292
  277SOL     OW  965   1.571   3.088   1.316  0.7012  0.6533  0.4317
  277SOL    HW1  966   1.618   3.163   1.352  0.6171  0.9582 -0.0847
  277SOL    HW2  967   1.638   3.041   1.266  0.8591  0.1352  1.1123
  278SOL     OW  968   1.862   4.981   2.818  0.5434  0.4381 -0.0845
  278SOL    HW1  969   1.842   5.045   2.886  2.6095 -0.6694  1.6890
  278SOL    HW2  970   1.811   4.904   2.842 -1.0896  0.9754 -1.6012
  279SOL     OW  971   3.630   3.030   2.627  0.5996  0.3129 -0.3459
  279SOL    HW1  972   3.706   3.007   2.574 -0.4817 -1.8372 -1.0900
  279SOL    HW2  973   3.626   3.125   2.624 -0.0842  0.3794 -5.2459
  280SOL     OW  974   1.584   3.423   4.134  0.3652  0.6678  0.0053
  280SOL    HW1  975   1.576   3.356   4.066  0.1745 -1.3030  1.8586
  280SOL    HW2  976   1.503   3.415   4.185  1.1409  1.0180  1.3401
  281SOL     OW  977   2.974   1.894   4.809  0.8734  0.5690  0.0330
  281SOL    HW1  978   2.977   1.966   4.746 -1.2008  0.6836 -0.0216
  281SOL    HW2  979   2.989   1.815   4.757 -1.0453  0.6425 -0.7320
  282SOL     OW  980   3.591   0.673   3.958  0.1527 -0.0471  0.2290
  282SOL    HW1  981   3.663   0.735   3.966  0.0170  0.0330  0.8513
  282SOL    HW2  982   3.513   0.725   3.978  0.1036 -0.5772  1.4753
  283SOL     OW  983   1.925   3.836   4.978 -0.3659 -0.1388  0.0555
  283SOL    HW1  984   1.867   3.764   4.951 -0.2975 -1.0188  2.0389
  283SOL    HW2  985   2.012   3.795   4.984  0.0045  0.5547 -0.4637
  284SOL     OW  986   2.511   1.649   1.006  0.4831  0.6370  0.0180
  284SOL    HW1  987   2.468   1.683   0.927  1.2343 -2.9900 -2.1567
  284SOL    HW2  988   2.438   1.626   1.064 -0.3414 -0.2516 -1.2907
  285SOL     OW  989   3.988   2.369   3.941  0.4030 -0.1582 -0.3352
  285SOL    HW1  990   4.005   2.427   3.868 -0.8761 -1.4216 -1.6963
  285SOL    HW2  991   3.953   2.289   3.902  0.3811 -1.1764  1.5952
  286SOL     OW  992   4.498   4.203   3.294  0.3392  0.0584  0.3094
  286SOL    HW1  993   4.545   4.266   3.349 -0.0692  0.5142  0.1433
  286SOL    HW2  994   4.564   4.137   3.271  0.9544  0.8091 -0.1050
  287SOL     OW  995   2.521   4.625   3.496 -0.0455  0.2613  0.2920
  287SOL    HW1  996   2.469   4.546   3.510 -0.8814  0.4552 -1.4769
  287SOL    HW2  997   2.611   4.593   3.491 -0.2862 -0.4721  0.4514
  288SOL     OW  998   1.615   3.745   2.898 -0.0577 -0.6458  0.0655
  288SOL    HW1  999   1.540   3.696   2.864  0.6261 -2.1284  0.6122
  288SOL    HW2 1000   1.690   3.707   2.853  0.5300 -0.3815  0.8092
  289SOL     OW 1001   4.292   2.831   2.627  0.2140  0.2934  0.3587
  289SOL    HW1 1002   4.208   2.872   2.647 -1.1035 -2.5393  1.1963
  289SOL    HW2 1003   4.270   2.759   2.567  1.5234 -2.1270  2.5700
  290SOL     OW 1004   2.248   0.815   3.047  0.1651 -0.0349 -0.3883
  290SOL    HW1 1005   2.279   0.771   2.967 -0.1089 -0.7152 -0.1290
  290SOL    HW2 1006   2.156   0.789   3.054  0.2042 -0.0243  0.1829
  291SOL     OW 1007   0.315   4.065   1.241 -0.9509 -0.4572  0.1449
  291SOL    HW1 1008   0.373   4.139   1.258 -1.0853  0.3563 -2.5198
  291SOL    HW2 1009   0.351   3.994   1.294  1.6951  0.3836 -0.3744
  292SOL     OW 1010   0.522   2.151   3.527  0.0441  0.1413  0.2447
  292SOL    HW1 1011   0.442   2.117   3.567  0.9436 -0.9892  1.1490
  292SOL    HW2 1012   0.502   2.157   3.434  0.0156 -3.5697 -0.1069
  293SOL     OW 1013   0.342   1.982   3.654 -0.1530  0.1498  0.0848
  293SOL    HW1 1014   0.327   1.937   3.737 -0.6733 -0.6721 -0.4398
  293SOL    HW2 1015   0.265   2.037   3.642 -0.1522  0.1467  0.0656
  294SOL     OW 1016   3.524   3.380   1.441 -0.1961  0.0474 -0.0167
  294SOL    HW1 1017   3.457   3.316   1.466 -0.6068  0.8817  1.1139
  294SOL    HW2 1018   3.553   3.418   1.524  0.6004  0.7730 -0.6081
  295SOL     OW 1019   0.048   1.283   4.906  0.0696  0.7488 -0.4286
  295SOL    HW1 1020   0.129   1.326   4.876  0.6331 -0.9628 -1.5174
  295SOL    HW2 1021   0.065   1.261   4.998  1.2325 -0.3445 -0.8676
  296SOL     OW 1022   0.393   2.190   3.004  0.2464 -0.5743  0.1655
  296SOL    HW1 1023   0.426   2.102   2.989 -0.9665 -1.2036  1.0543
  296SOL    HW2 1024   0.392   2.231   2.918  0.6451 -1.4916 -0.2786
  297SOL     OW 1025   1.503   4.760   1.141 -0.2104 -0.4285 -0.3629
  297SOL    HW1 1026   1.575   4.803   1.093  0.5421 -1.1535  0.0860
  297SOL    HW2 1027   1.468   4.829   1.197 -0.9179  0.3602 -1.7086
  298SOL     OW 1028   4.519   1.718   3.167  0.5120  0.4289 -0.5463
  298SOL    HW1 1029   4.548   1.809   3.179  0.9904  0.1414  0.6659
  298SOL    HW2 1030   4.478   1.717   3.081  0.6785  1.7516 -0.6644
  299SOL     OW 1031   3.067   2.916   2.787 -0.8308  0.1628  0.8463
  299SOL    HW1 1032   3.123   2.992   2.801 -3.8555  2.8793 -0.3294
  299SOL    HW2 1033   3.051   2.881   2.875  2.7947 -0.9887  1.1847
  300SOL     OW 1034   0.537   4.282   4.255 -0.5133  0.6663 -0.2648
  300SOL    HW1 1035   0.522   4.307   4.346 -0.7911  0.8417 -0.3552
  300SOL    HW2 1036   0.528   4.187   4.254  0.2184  0.5850  0.0224
  301SOL     OW 1037   4.928   0.986   3.387 -0.6046  0.0487 -0.0238
  301SOL    HW1 1038   4.911   0.933   3.464  0.0082  0.6894  0.5721
  301SOL    HW2 1039   4.849   1.038   3.375 -1.0673 -0.7244 -0.4026
  302SOL     OW 1040   2.034   4.601   3.139  0.1227  0.0364  0.0951
  302SOL    HW1 1041   2.046   4.544   3.062 -1.1342 -0.5640  0.3124
  302SOL    HW2 1042   2.115   4.592   3.189  0.9679  0.4420 -1.1549
  303SOL     OW 1043   2.633   4.127   3.621 -0.5143 -0.3310  0.1801
  303SOL    HW1 1044   2.568   4.133   3.691 -1.3408 -2.8218 -0.2524
  303SOL    HW2 1045   2.709   4.085   3.662 -0.3694 -0.2574 -0.0129
  304SOL     OW 1046   3.068   4.602   0.575  0.4920 -1.1435 -0.2247
  304SOL    HW1 1047   3.155   4.625   0.543  0.2589 -1.9109 -1.4721
  304SOL    HW2 1048   3.034   4.683   0.612  1.7699 -0.8541  0.3820
  305SOL     OW 1049   3.804   0.388   1.955 -0.1513 -0.0302 -0.1552
  305SOL    HW1 1050   3.794   0.444   2.032 -0.8174 -0.0167 -0.2445
  305SOL    HW2 1051   3.831   0.303   1.990  1.4163  0.4701 -0.0601
  306SOL     OW 1052   3.489   1.512   4.687 -0.2631 -0.3270 -0.0224
  306SOL    HW1 1053   3.491   1.456   4.764  0.7983  0.4962  0.5784
  306SOL    HW2 1054   3.441   1.462   4.621 -2.8947 -0.2748  1.7374
  307SOL     OW 1055   2.497   3.115   3.066 -0.2515 -0.1268  0.5993
  307SOL    HW1 1056   2.485   3.205   3.095  1.2513  0.4068 -0.2880
  307SOL    HW2 1057   2.586   3.093   3.095  0.1954 -0.5677 -1.0412
  308SOL     OW 1058   3.403   3.074   1.020 -0.1163  0.0147 -0.6231
  308SOL    HW1 1059   3.349   3.000   1.045 -0.2475  0.3542  0.1309
  308SOL    HW2 1060   3.409   3.069   0.924  1.4977 -2.0754 -0.4745
  309SOL     OW 1061   3.154   0.680   1.793 -0.7015 -0.3454 -0.1081
  309SOL    HW1 1062   3.182   0.762   1.833  1.5326 -0.9802 -0.2389
  309SOL    HW2 1063   3.071   0.659   1.836  0.4469  0.1741  2.5251
  310SOL     OW 1064   3.954   4.968   3.152  0.0673 -0.1259  0.2968
  310SOL    HW1 1065   3.923   5.030   3.085  0.8925  0.5673  0.5354
  310SOL    HW2 1066   4.047   4.990   3.163 -0.1221 -0.0553  1.8576
  311SOL     OW 1067   2.598   1.698   2.870  0.2124 -0.2146  0.0134
  311SOL    HW1 1068   2.646   1.694   2.788  2.0180  2.3389  0.8049
  311SOL    HW2 1069   2.550   1.781   2.866  0.4926  0.0596  1.5804
  312SOL     OW 1070   0.120   3.758   2.003  0.4270  0.2094 -0.6970
  312SOL    HW1 1071   0.149   3.824   2.067  0.6759  1.5726 -2.1549
  312SOL    HW2 1072   0.029   3.781   1.985 -0.3215 -1.4729  0.6995
  313SOL     OW 1073   0.192   2.966   4.356  0.6796 -0.6304  0.4775
  313SOL    HW1 1074   0.105   3.004   4.352  1.7037  1.8217 -0.8409
  313SOL    HW2 1075   0.180   2.880   4.397 -1.9020  0.7906  2.9832
  314SOL     OW 1076   3.886   2.576   2.686 -0.1101  0.0081 -0.7282
  314SOL    HW1 1077   3.831   2.651   2.710 -0.5339 -0.5535  0.1328
  314SOL    HW2 1078   3.936   2.556   2.766  2.2184  1.1896 -1.8002
  315SOL     OW 1079   1.480   0.717   0.676  0.1740 -0.5700 -0.0596
  315SOL    HW1 1080   1.499   0.772   0.600 -1.6371  0.4566  0.1628
  315SOL    HW2 1081   1.465   0.630   0.640 -0.4274 -0.1456 -0.8537
  316SOL     OW 1082   0.171   0.812   0.799  0.4519  0.8742  0.1196
  316SOL    HW1 1083   0.086   0.838   0.835 -0.0781 -0.3509 -0.1956
  316SOL    HW2 1084   0.205   0.892   0.759 -0.2989  1.5211  0.7159
  317SOL     OW 1085   4.837   0.820   4.727 -0.0674  0.5252  0.3012
  317SOL    HW1 1086   4.872   0.827   4.638  1.1870 -0.4854  0.6836
  317SOL    HW2 1087   4.827   0.726   4.742 -2.7362  0.7551  0.3412
  318SOL     OW 1088   4.850   2.180   0.336 -0.4438  0.2346 -0.0104
  318SOL    HW1 1089   4.938   2.203   0.366 -0.7081  0.5161  0.5659
  318SOL    HW2 1090   4.848   2.209   0.244  0.0736  0.1951 -0.0367
  319SOL     OW 1091   2.075   0.937   2.746  0.1319  0.1720  0.4794
  319SOL    HW1 1092   2.007   0.988   2.701  1.9083  0.3853 -2.1684
  319SOL    HW2 1093   2.043   0.847   2.741 -0.4366  0.3843  0.1874
  320SOL     OW 1094   4.414   4.887   3.446 -0.1053 -0.4349 -0.0135
  320SOL    HW1 1095   4.346   4.821   3.437  0.9734 -1.3959 -1.7999
  320SOL    HW2 1096   4.378   4.965   3.405 -0.6431 -0.5018  0.3202
  321SOL     OW 1097   0.131   4.869   4.468  0.3544 -0.3279 -0.0271
  321SOL    HW1 1098   0.106   4.944   4.414  0.7359  1.3282  1.9906
  321SOL    HW2 1099   0.212   4.895   4.511 -0.4002 -1.1665  2.0535
  322SOL     OW 1100   2.822   3.399   1.619  0.5718  0.3431  0.1318
  322SOL    HW1 1101   2.771   3.403   1.700 -1.4386  1.9357 -1.1183
  322SOL    HW2 1102   2.756   3.395   1.550  2.2280 -0.1387 -1.4837
  323SOL     OW 1103   1.177   0.825   4.878 -0.3564 -0.6651 -0.6291
  323SOL    HW1 1104   1.087   0.793   4.890  0.1423 -1.7364  0.4527
  323SOL    HW2 1105   1.199   0.799   4.789 -0.4175 -2.2457 -0.2053
  324SOL     OW 1106   1.449   1.649   0.164 -0.1853 -0.1840 -0.2276
  324SOL    HW1 1107   1.511   1.662   0.092 -1.9891  0.6365 -1.6915
  324SOL    HW2 1108   1.386   1.720   0.157 -0.4349 -0.0489  2.2201
  325SOL     OW 1109   2.629   0.963   0.618 -0.0035  0.2222  0.3872
  325SOL    HW1 1110   2.638   0.949   0.523 -0.5910  0.7636  0.2475
  325SOL    HW2 1111   2.695   0.905   0.656  0.4067  0.1732 -0.3644
  326SOL     OW 1112   1.649   3.676   4.228  0.7293  0.8352  0.5299
  326SOL    HW1 1113   1.590   3.678   4.304 -1.5291  0.9918 -1.1244
  326SOL    HW2 1114   1.650   3.585   4.200  1.8632  0.7069  0.9449
  327SOL     OW 1115   3.928   3.993   3.880  0.6534 -0.5042  0.3193
  327SOL    HW1 1116   4.012   4.016   3.919 -0.5673  1.7667  1.8301
  327SOL    HW2 1117   3.886   3.937   3.946  0.3921 -0.3992  0.2434
  328SOL     OW 1118   1.741   3.962   3.015  0.0704 -0.5925  0.0253
  328SOL    HW1 1119   1.690   3.882   3.002 -1.4338  0.5950 -1.8986
  328SOL    HW2 1120   1.783   3.950   3.100 -2.4914 -2.1695  1.1914
  329SOL     OW 1121   4.514   4.037   1.146 -0.4309  0.3028 -0.1940
  329SOL    HW1 1122   4.539   3.944   1.154  0.2765  0.2420 -2.3827
  329SOL    HW2 1123   4.443   4.036   1.082  0.2399  1.3600 -0.9646
  330SOL     OW 1124   0.920   3.724   4.051 -0.0992 -0.0042 -0.3740
  330SOL    HW1 1125   0.954   3.635   4.037 -1.8816 -0.6084 -1.0970
  330SOL    HW2 1126   0.885   3.722   4.141  1.3530  0.5130  0.2389
  331SOL     OW 1127   4.347   2.187   2.524 -0.3195 -0.2181  0.3292
  331SOL    HW1 1128   4.340   2.139   2.442  1.0513  0.8533 -0.4585
  331SOL    HW2 1129   4.364   2.120   2.590  1.7771 -0.8607 -0.7726
  332SOL     OW 1130   1.487   3.212   2.431  0.4711 -0.2840  0.3576
  332SOL    HW1 1131   1.568   3.222   2.481  0.4190  2.0490  0.0842
  332SOL    HW2 1132   1.502   3.263   2.351 -0.1117 -2.4536 -1.2256
  333SOL     OW 1133   3.759   4.060   0.326 -0.2519  0.4055  0.0109
  333SOL    HW1 1134   3.703   4.122   0.373 -1.4287  1.2747 -2.3919
  333SOL    HW2 1135   3.826   4.114   0.285  0.6506 -0.3241  0.4678
  334SOL     OW 1136   2.192   0.431   4.890 -0.1702  0.6487  0.4372
  334SOL    HW1 1137   2.197   0.384   4.973 -2.0291  0.8692  0.7287
  334SOL    HW2 1138   2.199   0.363   4.823 -1.4571  0.1061  0.8310
  335SOL     OW 1139   0.204   3.630   2.863 -0.1838 -0.1446 -0.4207
  335SOL    HW1 1140   0.111   3.634   2.840 -0.8261  2.2426  2.0677
  335SOL    HW2 1141   0.244   3.700   2.811  0.1673 -0.9164 -1.2005
  336SOL     OW 1142   0.144   1.149   3.332 -0.0741 -0.1717 -0.2123
  336SOL    HW1 1143   0.092   1.224   3.305  0.5691 -0.2466 -1.7860
  336SOL    HW2 1144   0.083   1.093   3.380 -0.9790  0.5881 -0.4493
  337SOL     OW 1145   1.398   1.441   4.005  0.1123 -0.6671  0.1799
  337SOL    HW1 1146   1.393   1.531   4.036 -0.7471 -0.7449  0.2897
  337SOL    HW2 1147   1.424   1.448   3.913  2.8456 -0.4348  0.8856
  338SOL     OW 1148   4.557   3.133   3.941  0.1044 -0.0341 -0.2083
  338SOL    HW1 1149   4.617   3.116   4.014  0.4359 -0.7510 -0.6378
  338SOL    HW2 1150   4.514   3.215   3.964  0.4813 -0.0572  0.6141
  339SOL     OW 1151   1.916   4.518   0.277  0.5725  0.2627 -0.2443
  339SOL    HW1 1152   1.829   4.494   0.309  0.1218  2.0031 -0.0951
  339SOL    HW2 1153   1.943   4.442   0.225 -0.5945 -0.7296  0.5228
  340SOL     OW 1154   1.789   3.526   1.159  0.2891  0.6048  0.3522
  340SOL    HW1 1155   1.765   3.565   1.243 -0.1914 -4.0158  2.6741
  340SOL    HW2 1156   1.881   3.504   1.168 -0.1800 -1.4910  0.4550
  341SOL     OW 1157   0.748   3.414   2.164  0.1799  0.3910 -0.3317
  341SOL    HW1 1158   0.664   3.388   2.127  0.1472  0.8772 -0.6029
  341SOL    HW2 1159   0.793   3.460   2.093 -0.2825  2.1949  0.4749
  342SOL     OW 1160   0.038   0.885   1.470 -0.5325  0.0241 -0.3725
  342SOL    HW1 1161   0.011   0.884   1.378  1.8578 -0.5648 -1.1334
  342SOL    HW2 1162   0.093   0.963   1.477 -0.5599 -0.0343  0.5340
  343SOL     OW 1163   2.483   2.254   4.065 -0.1997 -0.0826  0.3585
  343SOL    HW1 1164   2.481   2.345   4.035 -2.4873  0.2415  1.3316
  343SOL    HW2 1165   2.454   2.203   3.990  0.6314  0.0020 -0.0380
  344SOL     OW 1166   1.913   4.871   3.597 -0.6830  0.0977 -0.0650
  344SOL    HW1 1167   1.950   4.959   3.582 -0.7952  0.1397 -0.0976
  344SOL    HW2 1168   1.961   4.838   3.673  0.1918 -0.2838 -0.7603
  345SOL     OW 1169   0.465   1.102   0.157  0.3222 -0.0406 -0.4882
  345SOL    HW1 1170   0.509   1.017   0.152  0.7136  0.0800  0.6059
  345SOL    HW2 1171   0.375   1.081   0.184  0.3193 -0.1364 -0.5730
  346SOL     OW 1172   2.755   4.022   1.619  0.0274  0.2862 -0.1659
  346SOL    HW1 1173   2.780   4.028   1.527 -2.5021  4.3808 -0.8378
  346SOL    HW2 1174   2.678   3.965   1.619 -1.2649  1.9428 -1.0524
  347SOL     OW 1175   4.032   1.230   0.979  0.2491 -0.4200  0.3935
  347SOL    HW1 1176   4.096   1.266   1.040  1.7052 -1.2993 -0.5448
  347SOL    HW2 1177   4.074   1.238   0.893 -3.3012  4.6626 -1.3280
  348SOL     OW 1178   1.063   0.349   1.133 -0.5328 -0.2052  0.0649
  348SOL    HW1 1179   1.030   0.297   1.060  0.0500 -0.7080  0.1555
  348SOL    HW2 1180   1.057   0.291   1.208 -3.6121  1.1025  1.0201
  349SOL     OW 1181   1.841   4.519   3.984  0.0905  0.0417  0.2375
  349SOL    HW1 1182   1.795   4.502   4.066 -2.2750  0.8233 -0.8544
  349SOL    HW2 1183   1.832   4.613   3.970  2.3736  0.3086  0.1069
  350SOL     OW 1184   2.527   4.296   0.996  0.6459  0.4752  0.3777
  350SOL    HW1 1185   2.563   4.384   1.001 -0.0344  0.6934  1.7507
  350SOL    HW2 1186   2.523   4.277   0.902  0.2311  2.1447  0.0319
  351SOL     OW 1187   2.498   2.348   4.338  0.3584 -0.0796 -0.6160
  351SOL    HW1 1188   2.446   2.426   4.317 -1.8988 -0.9996  1.1275
  351SOL    HW2 1189   2.486   2.291   4.262  0.7447  0.6325 -1.2249
  352SOL     OW 1190   4.446   0.522   2.166 -0.1978 -0.2011 -0.0204
  352SOL    HW1 1191   4.483   0.437   2.142 -0.1764 -0.5260  1.1035
  352SOL    HW2 1192   4.487   0.584   2.105  2.6757 -0.4509  1.4857
  353SOL     OW 1193   3.572   0.597   1.016 -0.6321  0.4877  0.4735
  353SOL    HW1 1194   3.522   0.516   1.023  0.7204 -0.2137  3.2793
  353SOL    HW2 1195   3.648   0.574   0.963 -0.9759  0.3521  0.0284
  354SOL     OW 1196   1.074   1.440   4.625  0.3513  0.6919  0.1349
  354SOL    HW1 1197   1.095   1.347   4.617  2.1341  1.2073 -1.9061
  354SOL    HW2 1198   1.078   1.457   4.719 -1.3569 -1.5244  0.7083
  355SOL     OW 1199   3.989   0.387   2.668  0.7036 -0.2287  0.1489
  355SOL    HW1 1200   3.896   0.409   2.665  0.6148 -0.6798 -2.5407
  355SOL    HW2 1201   3.992   0.299   2.707 -0.2260 -1.0659 -1.5818
  356SOL     OW 1202   4.232   1.607   0.100 -0.8817 -0.0984  0.3740
  356SOL    HW1 1203   4.214   1.686   0.050 -0.5399 -1.5288 -2.2162
  356SOL    HW2 1204   4.147   1.564   0.109 -0.9342  0.1276  1.0206
  357SOL     OW 1205   3.582   3.126   2.958 -0.1111 -0.4142 -0.3299
  357SOL    HW1 1206   3.595   3.086   3.044 -2.2863 -2.8828 -1.0501
  357SOL    HW2 1207   3.593   3.054   2.896 -0.6297  0.8812 -1.9941
  358SOL     OW 1208   1.671   4.538   1.843  0.4052  0.3111  0.3749
  358SOL    HW1 1209   1.757   4.499   1.824  0.0448  0.4240 -1.6627
  358SOL    HW2 1210   1.679   4.628   1.813 -0.8875 -0.0980 -1.3367
  359SOL     OW 1211   3.582   3.405   3.054 -0.0061 -0.0562  0.3794
  359SOL    HW1 1212   3.515   3.442   3.111  0.3598 -2.6445  2.7467
  359SOL    HW2 1213   3.545   3.322   3.025  0.9299 -0.0385 -0.9401
  360SOL     OW 1214   3.997   1.664   2.723 -0.5601  0.0992  0.2887
  360SOL    HW1 1215   3.907   1.687   2.747 -1.5555 -1.0170 -1.9909
  360SOL    HW2 1216   4.005   1.572   2.748 -0.2982  0.0059 -0.1403
  361SOL     OW 1217   2.617   3.352   1.037  0.1326 -0.0062 -0.0298
  361SOL    HW1 1218   2.542   3.412   1.043  0.1763  0.0421  0.0446
  361SOL    HW2 1219   2.682   3.390   1.097 -0.1964 -0.6474  0.7556
  362SOL     OW 1220   2.775   2.812   2.075  0.0662 -0.0057  0.1690
  362SOL    HW1 1221   2.767   2.729   2.122 -3.7309 -1.5548 -2.6995
  362SOL    HW2 1222   2.717   2.872   2.121 -0.3989 -0.2278 -0.1260
  363SOL     OW 1223   1.552   4.898   3.890 -0.1954  0.0392 -0.1754
  363SOL    HW1 1224   1.475   4.849   3.860  1.0692 -1.8371 -0.5253
  363SOL    HW2 1225   1.591   4.932   3.810  0.4855 -0.7934 -0.1997
  364SOL     OW 1226   0.824   3.121   0.328 -0.0157  0.4476 -0.3414
  364SOL    HW1 1227   0.905   3.079   0.355  0.0284  1.1069  0.6253
  364SOL    HW2 1228   0.758   3.052   0.335 -0.2420  0.8276  2.8150
  365SOL     OW 1229   0.956   2.684   0.949 -0.6266 -0.3599 -0.1565
  365SOL    HW1 1230   0.968   2.738   0.872 -0.2895 -0.1630  0.0293
  365SOL    HW2 1231   1.044   2.676   0.987 -0.8437 -0.1349  0.4151
  366SOL     OW 1232   2.635   2.800   3.739 -0.0958 -0.7155  0.5295
  366SOL    HW1 1233   2.615   2.707   3.737  1.1240 -1.0017  0.5146
  366SOL    HW2 1234   2.724   2.806   3.704 -0.6737  0.6152 -0.8652
  367SOL     OW 1235   3.808   3.482   0.929 -0.5022 -0.1198  0.0206
  367SOL    HW1 1236   3.855   3.519   0.854 -2.0476 -0.6252 -1.2389
  367SOL    HW2 1237   3.800   3.555   0.990  0.3584  0.4296 -0.4988
  368SOL     OW 1238  -0.004   4.660   0.268 -0.5290  0.1172  0.4573
  368SOL    HW1 1239   0.084   4.640   0.235 -1.1515 -0.6392 -0.8232
  368SOL    HW2 1240  -0.026   4.585   0.324 -1.0835 -0.6660 -0.7556
  369SOL     OW 1241   4.056   4.668   4.922 -0.0022 -0.2701 -0.0318
  369SOL    HW1 1242   4.023   4.721   4.995  0.4523 -0.6863  0.4789
  369SOL    HW2 1243   4.148   4.691   4.916 -0.0673 -0.1369 -0.5751
  370SOL     OW 1244   4.877   3.185   2.187 -0.4763 -0.0710 -0.1996
  370SOL    HW1 1245   4.921   3.109   2.150 -0.9029 -0.4040 -0.0312
  370SOL    HW2 1246   4.841   3.231   2.111 -2.3643 -1.3808 -0.1824
  371SOL     OW 1247   1.732   3.303   2.832  0.4364 -1.1839  0.7013
  371SOL    HW1 1248   1.826   3.286   2.831  0.5418 -0.8700  2.6137
  371SOL    HW2 1249   1.704   3.281   2.921 -0.8068  1.2209  0.9854
  372SOL     OW 1250   1.546   4.509   2.264 -0.2367 -0.4923  0.3149
  372SOL    HW1 1251   1.513   4.532   2.177 -1.8043  0.3536  1.0912
  372SOL    HW2 1252   1.633   4.474   2.248 -1.1917 -2.1433 -1.7942
  373SOL     OW 1253   0.940   1.884   1.297  0.4116 -0.4816 -0.6044
  373SOL    HW1 1254   1.008   1.821   1.276  2.8267  1.1445  1.7209
  373SOL    HW2 1255   0.942   1.892   1.392 -1.9236  0.8824 -0.5725
  374SOL     OW 1256   0.324   3.560   1.156  0.2118 -0.0519 -0.0482
  374SOL    HW1 1257   0.380   3.488   1.128  0.7663  0.0613  0.7286
  374SOL    HW2 1258   0.247   3.518   1.194  0.3940 -0.2320  0.1244
  375SOL     OW 1259   1.692   2.929   4.574 -0.3089 -0.1999 -0.0447
  375SOL    HW1 1260   1.609   2.972   4.594 -1.4622 -2.1912 -0.2505
  375SOL    HW2 1261   1.738   2.990   4.516  0.1521  2.6798  3.0218
  376SOL     OW 1262   2.711   0.154   4.551  0.1444  0.2940  0.5281
  376SOL    HW1 1263   2.798   0.123   4.576 -0.1239 -0.2591  0.8075
  376SOL    HW2 1264   2.651   0.087   4.585 -0.4478  1.0699  1.0370
  377SOL     OW 1265   2.706   4.500   4.539  0.1292 -0.0973  0.0403
  377SOL    HW1 1266   2.644   4.557   4.493  0.9002  1.1263  0.4778
  377SOL    HW2 1267   2.674   4.498   4.629 -1.0654 -2.0510 -0.3811
  378SOL     OW 1268   0.372   3.384   1.892 -0.4788 -0.2251  0.1594
  378SOL    HW1 1269   0.416   3.465   1.918  0.5077 -0.4104 -0.8398
  378SOL    HW2 1270   0.442   3.319   1.890 -1.3115 -1.2020  1.2800
  379SOL     OW 1271   3.012   1.324   3.991 -0.9793  0.8833 -0.2688
  379SOL    HW1 1272   3.053   1.319   3.904 -0.8764  0.9653 -0.2248
  379SOL    HW2 1273   2.936   1.266   3.984  0.5023 -1.2749  0.4120
  380SOL     OW 1274   0.254   4.736   1.070  0.2331 -0.7035 -0.3799
  380SOL    HW1 1275   0.295   4.669   1.123 -0.3669  0.2840  1.4078
  380SOL    HW2 1276   0.209   4.792   1.132 -0.1008  0.8004 -1.8907
  381SOL     OW 1277   3.617   4.372   2.228  0.1313  0.1705  0.2243
  381SOL    HW1 1278   3.709   4.348   2.238  0.1073  0.2747  0.7266
  381SOL    HW2 1279   3.570   4.303   2.276 -0.2180 -1.2636 -2.0403
  382SOL     OW 1280   1.351   0.962   4.254  0.3077  0.3395  0.5857
  382SOL    HW1 1281   1.360   1.057   4.242 -0.4959  0.4613  0.8890
  382SOL    HW2 1282   1.437   0.927   4.229  0.9375  1.2328  1.4312
  383SOL     OW 1283   0.474   4.756   4.805 -0.3753 -0.1393  0.0289
  383SOL    HW1 1284   0.520   4.817   4.746  1.1037 -2.4014 -1.2970
  383SOL    HW2 1285   0.412   4.710   4.748 -1.2076 -0.1714  0.9355
  384SOL     OW 1286   1.309   4.487   4.917  0.1735 -0.8120  0.0266
  384SOL    HW1 1287   1.370   4.415   4.905  2.2429  0.6801  0.9365
  384SOL    HW2 1288   1.304   4.499   5.012  2.0772  1.8736 -0.0838
  385SOL     OW 1289   1.335   2.587   1.907 -0.2621 -0.5037 -0.1495
  385SOL    HW1 1290   1.324   2.678   1.934 -0.1349 -0.4078 -0.4188
  385SOL    HW2 1291   1.429   2.570   1.919 -0.0411 -0.1980 -1.3337
  386SOL     OW 1292   2.301   4.755   3.493 -0.1400  0.0463  0.1284
  386SOL    HW1 1293   2.385   4.714   3.513  0.0252  0.7539  0.9117
  386SOL    HW2 1294   2.267   4.784   3.577 -0.8779  0.3270 -0.2576
  387SOL     OW 1295   2.027   1.427   4.253  0.2167  0.2414 -0.6529
  387SOL    HW1 1296   2.041   1.345   4.301 -0.4515 -0.1807 -1.1631
  387SOL    HW2 1297   2.101   1.482   4.279  0.0613 -0.0965  0.5834
  388SOL     OW 1298   0.901   4.994   0.125  0.5160  0.3069 -1.1139
  388SOL    HW1 1299   0.934   4.914   0.167  0.2964  1.5552  1.6675
  388SOL    HW2 1300   0.978   5.048   0.111  0.2422  2.1950  3.1135
  389SOL     OW 1301   3.682   2.309   4.138 -0.8401 -0.1190  0.0729
  389SOL    HW1 1302   3.708   2.341   4.225  1.2008 -1.6622  0.1157
  389SOL    HW2 1303   3.636   2.383   4.098  0.4120  1.5506  1.5315
  390SOL     OW 1304   1.034   1.124   0.092  0.4261  0.2979 -0.2682
  390SOL    HW1 1305   0.988   1.184   0.150  0.6391  0.9109 -0.7173
  390SOL    HW2 1306   1.004   1.149   0.004 -1.7494 -2.1484 -0.3491
  391SOL     OW 1307   2.711   4.355   1.284  0.0751 -0.5874  0.9028
  391SOL    HW1 1308   2.722   4.287   1.219 -2.4519 -0.3699  0.1359
  391SOL    HW2 1309   2.797   4.366   1.323  0.7895 -3.4378  0.3048
  392SOL     OW 1310   0.738   0.688   3.200 -0.2180  0.0353 -0.0655
  392SOL    HW1 1311   0.701   0.694   3.111  1.8674  0.7882 -0.9385
  392SOL    HW2 1312   0.665   0.713   3.257 -1.1027  1.4624 -1.6905
  393SOL     OW 1313   4.875   1.349   2.367 -0.1940 -0.4950  0.3589
  393SOL    HW1 1314   4.829   1.391   2.440  1.0085 -0.7217  1.2962
  393SOL    HW2 1315   4.967   1.350   2.394  0.8528  2.4532 -2.6398
  394SOL     OW 1316   3.217   0.221   3.191  0.1247  0.1094  0.1074
  394SOL    HW1 1317   3.188   0.312   3.195  1.4818  0.5316  0.7860
  394SOL    HW2 1318   3.155   0.173   3.246 -0.7167  0.5663 -0.4099
  395SOL     OW 1319   1.214   4.595   2.384  0.5326  0.3872  0.8251
  395SOL    HW1 1320   1.208   4.505   2.351  0.4280 -0.3405  2.7182
  395SOL    HW2 1321   1.303   4.602   2.418  0.5662  1.0414  0.6172
  396SOL     OW 1322   1.298   0.642   2.359 -0.2002  0.1338 -0.1715
  396SOL    HW1 1323   1.290   0.734   2.382 -0.3443 -0.3176  1.7000
  396SOL    HW2 1324   1.285   0.640   2.264  2.1078  2.2967 -0.6421
  397SOL     OW 1325   3.968   3.173   0.046 -0.1275  0.1443 -0.5611
  397SOL    HW1 1326   4.048   3.149   0.093 -0.2145 -2.1450 -1.4411
  397SOL    HW2 1327   3.923   3.234   0.104  1.5359  0.3175  0.6121
  398SOL     OW 1328   3.562   1.338   0.838 -0.5405 -0.9341  0.4344
  398SOL    HW1 1329   3.553   1.361   0.930 -0.3611 -2.5174  0.8756
  398SOL    HW2 1330   3.652   1.307   0.829  0.5003  2.1191 -1.0001
  399SOL     OW 1331   0.869   3.583   2.548  0.0922  0.6381 -0.2552
  399SOL    HW1 1332   0.828   3.557   2.630 -0.1654  0.8435 -0.3198
  399SOL    HW2 1333   0.893   3.674   2.560 -0.1232  0.7260 -0.4766
  400SOL     OW 1334   4.197   3.898   1.899  0.2007 -0.6764  0.2222
  400SOL    HW1 1335   4.251   3.830   1.860 -0.0662 -0.0286 -1.3944
  400SOL    HW2 1336   4.111   3.887   1.858 -0.1523 -0.0624  0.7666
  401SOL     OW 1337   3.675   3.299   3.870  0.1651 -0.3345  0.1357
  401SOL    HW1 1338   3.659   3.323   3.961  1.3076 -0.7377  0.4605
  401SOL    HW2 1339   3.605   3.342   3.821 -0.3881 -0.0112  1.1887
  402SOL     OW 1340   1.665  -0.002   3.628 -0.2944 -0.0310  0.4247
  402SOL    HW1 1341   1.684   0.088   3.654 -1.8130 -0.1456  2.0782
  402SOL    HW2 1342   1.747  -0.049   3.643  0.1407  0.8109  0.7626
  403SOL     OW 1343   1.545   1.698   1.451  0.1587  0.3472 -0.2206
  403SOL    HW1 1344   1.522   1.701   1.358 -1.2377  0.6841  0.1101
  403SOL    HW2 1345   1.493   1.767   1.491 -0.6453 -0.9553  1.0984
  404SOL     OW 1346   1.857   0.137   2.408 -0.3416  0.0985  0.1985
  404SOL    HW1 1347   1.777   0.177   2.374  0.5075  1.6967 -0.0310
  404SOL    HW2 1348   1.924   0.157   2.342  0.8568  1.3313  1.7214
  405SOL     OW 1349   0.488   4.564   2.441 -0.3790  0.3964 -0.0583
  405SOL    HW1 1350   0.556   4.624   2.472 -1.8299  1.3936  1.3608
  405SOL    HW2 1351   0.437   4.615   2.379  0.6344 -0.6225 -1.7986
  406SOL     OW 1352   4.912   4.753   0.984  1.0278 -0.2925  0.6004
  406SOL    HW1 1353   4.931   4.839   1.021 -0.3828  0.1692  0.2809
  406SOL    HW2 1354   4.885   4.771   0.894  1.4518 -1.1432  0.2907
  407SOL     OW 1355   2.026   1.214   0.471 -0.6308  0.2608  0.0136
  407SOL    HW1 1356   2.048   1.123   0.489 -0.7347  0.3504  0.6307
  407SOL    HW2 1357   2.110   1.260   0.475 -0.2577 -0.0836 -2.2953
  408SOL     OW 1358   3.471   1.255   3.225  0.2632  0.0359 -0.1365
  408SOL    HW1 1359   3.533   1.252   3.297  0.8952 -2.1996 -0.6890
  408SOL    HW2 1360   3.518   1.298   3.154  1.1305 -1.4041 -0.4663
  409SOL     OW 1361   4.821   4.181   3.589  0.3845 -0.4413  0.2304
  409SOL    HW1 1362   4.828   4.093   3.627  0.9536 -0.2720  0.5239
  409SOL    HW2 1363   4.898   4.227   3.621  0.2181  0.0917 -0.1276
  410SOL     OW 1364   2.218   1.946   0.320 -0.0716  0.4614  0.0249
  410SOL    HW1 1365   2.287   1.988   0.269  0.0892 -0.2283 -0.3468
  410SOL    HW2 1366   2.201   2.006   0.393  1.5455  0.2390  0.6261
  411SOL     OW 1367   3.220   0.513   4.869  0.0495  0.3234 -0.6272
  411SOL    HW1 1368   3.254   0.485   4.954  0.6806  1.2066 -0.5802
  411SOL    HW2 1369   3.162   0.586   4.889  0.0552  0.4150 -0.9397
  412SOL     OW 1370   3.344   2.641   2.325  0.1075  0.0773  0.2888
  412SOL    HW1 1371   3.360   2.735   2.316  2.4555 -0.1055  1.6945
  412SOL    HW2 1372   3.270   2.635   2.385 -0.3361  1.0249 -0.1476
  413SOL     OW 1373   2.489   2.854   0.410 -0.4422 -0.4652  0.5038
  413SOL    HW1 1374   2.544   2.925   0.444  0.4766 -1.5872  1.4130
  413SOL    HW2 1375   2.551   2.786   0.384 -1.2780 -0.7053 -0.9671
  414SOL     OW 1376   3.144   1.992   4.481  0.3289  0.1217  0.6096
  414SOL    HW1 1377   3.149   1.911   4.532 -1.3626 -1.1839 -1.1119
  414SOL    HW2 1378   3.080   2.046   4.527  0.2033 -0.2538  0.8731
  415SOL     OW 1379   2.938   4.269   3.225 -0.1563  0.0583 -0.1055
  415SOL    HW1 1380   2.978   4.354   3.243 -1.8943  1.3536 -1.9589
  415SOL    HW2 1381   2.866   4.262   3.289 -0.1795  0.1034 -0.1269
  416SOL     OW 1382   1.049   1.474   2.379 -0.8143 -0.1759  0.4181
  416SOL    HW1 1383   0.957   1.501   2.376 -0.8257 -0.2501 -0.0107
  416SOL    HW2 1384   1.077   1.493   2.469 -1.0586  0.4812  0.3630
  417SOL     OW 1385   4.173   1.002   2.658 -0.5681  0.4955 -0.2951
  417SOL    HW1 1386   4.121   0.928   2.689  1.8438 -1.4138 -0.4998
  417SOL    HW2 1387   4.158   1.005   2.564 -0.8633  0.4014 -0.2496
  418SOL     OW 1388   2.686   1.979   3.827 -1.0229 -0.0342  0.2714
  418SOL    HW1 1389   2.759   1.919   3.812 -1.2511  0.0338 -1.3980
  418SOL    HW2 1390   2.703   2.018   3.912  0.2497 -0.9073  0.4425
  419SOL     OW 1391   1.636   0.500   1.591  0.1444  0.5243 -0.3206
  419SOL    HW1 1392   1.542   0.516   1.578 -0.2592 -1.2385  0.2063
  419SOL    HW2 1393   1.645   0.405   1.583  2.0343  0.7338 -1.1902
  420SOL     OW 1394   4.706   2.201   0.740 -0.3201 -0.5965 -0.4205
  420SOL    HW1 1395   4.741   2.279   0.783  1.4259 -0.0576 -2.6711
  420SOL    HW2 1396   4.664   2.152   0.811  1.5185  0.7216  1.7196
  421SOL     OW 1397   1.248   2.698   0.187 -0.1217 -0.2389 -0.1490
  421SOL    HW1 1398   1.239   2.759   0.114 -0.0424  0.3435  0.3250
  421SOL    HW2 1399   1.159   2.666   0.203 -0.2203  0.0169 -0.1774
  422SOL     OW 1400   2.166   2.303   2.118  0.2925  0.6815 -0.2202
  422SOL    HW1 1401   2.083   2.335   2.083 -0.7150  0.1607  1.5678
  422SOL    HW2 1402   2.177   2.216   2.080 -1.5325 -0.4999  1.7321
  423SOL     OW 1403   2.450   0.561   3.071 -0.2710  0.2047  0.1345
  423SOL    HW1 1404   2.367   0.515   3.081  0.3134 -0.5596  1.8238
  423SOL    HW2 1405   2.510   0.516   3.130  1.4453  0.5658 -1.2374
  424SOL     OW 1406   0.355   4.343   3.755  0.4330 -0.4379  0.2848
  424SOL    HW1 1407   0.364   4.248   3.752 -0.5632 -0.5238 -1.1827
  424SOL    HW2 1408   0.445   4.376   3.756  0.8466 -1.3779 -1.5053
  425SOL     OW 1409   0.481   0.795   1.083 -0.5187 -0.2477  0.5613
  425SOL    HW1 1410   0.411   0.858   1.104 -0.0729 -0.4158  2.7894
  425SOL    HW2 1411   0.475   0.729   1.152  1.6313 -0.4599  0.5917
  426SOL     OW 1412   1.910   1.415   3.764  0.1919 -0.2481  0.0258
  426SOL    HW1 1413   1.976   1.347   3.772  0.7213  0.1917 -0.4598
  426SOL    HW2 1414   1.832   1.371   3.731  0.3095 -0.7350  0.4004
  427SOL     OW 1415   3.298   4.980   0.589 -0.0669  0.7087 -0.1326
  427SOL    HW1 1416   3.231   4.919   0.619  0.3031 -1.1082 -2.6856
  427SOL    HW2 1417   3.342   5.009   0.669 -0.3875 -2.2844  1.2446
  428SOL     OW 1418   0.830   1.532   0.411 -0.3339  0.0281 -0.6082
  428SOL    HW1 1419   0.756   1.554   0.468 -0.2450 -0.9658 -0.0895
  428SOL    HW2 1420   0.898   1.595   0.435 -0.6952  0.3613 -0.4389
  429SOL     OW 1421   1.780   4.123   2.802  0.0944  0.1745 -0.1856
  429SOL    HW1 1422   1.777   4.101   2.895  0.9815  0.7603 -0.0051
  429SOL    HW2 1423   1.744   4.046   2.758 -1.5746  0.4058  0.7032
  430SOL     OW 1424   0.690   2.613   1.963 -0.4607  0.1135 -0.2530
  430SOL    HW1 1425   0.643   2.673   1.905 -0.4870  0.1389 -0.2061
  430SOL    HW2 1426   0.662   2.639   2.051  2.5265  2.7725  0.1231
  431SOL     OW 1427   0.075   4.322   1.822  0.2892  0.0116  0.3349
  431SOL    HW1 1428  -0.004   4.306   1.874 -0.2858 -0.8171 -0.7369
  431SOL    HW2 1429   0.081   4.417   1.816  0.0211  0.1096  1.3755
  432SOL     OW 1430   0.829   4.336   3.620 -0.4005 -0.1006 -0.2539
  432SOL    HW1 1431   0.760   4.271   3.635 -1.2992  0.6650 -0.9600
  432SOL    HW2 1432   0.807   4.407   3.680 -0.6674  0.4670 -1.0124
  433SOL     OW 1433   4.967   0.155   0.306  0.4856 -0.4676  0.0778
  433SOL    HW1 1434   4.946   0.171   0.398 -1.7917  1.0098 -0.6081
  433SOL    HW2 1435   5.028   0.225   0.282 -0.1213  0.0738  0.0953
  434SOL     OW 1436   2.644   4.393   2.899 -0.3556 -0.6981 -0.0594
  434SOL    HW1 1437   2.726   4.400   2.947 -0.1439 -0.5460 -0.4445
  434SOL    HW2 1438   2.667   4.408   2.808 -0.5663 -2.0801 -0.3727
  435SOL     OW 1439   3.311   1.352   1.289  0.0017 -0.3708 -0.3665
  435SOL    HW1 1440   3.273   1.370   1.203 -0.7646 -0.9183 -0.1590
  435SOL    HW2 1441   3.260   1.279   1.323  0.1383 -0.0186  0.6509
  436SOL     OW 1442   2.237   1.354   3.262 -0.5011 -0.2397  0.0930
  436SOL    HW1 1443   2.332   1.341   3.274 -0.3764  1.2355  0.9685
  436SOL    HW2 1444   2.227   1.367   3.168  0.4936  1.6562  0.1965
  437SOL     OW 1445   3.484   0.974   4.410  0.5136 -0.9453 -0.4915
  437SOL    HW1 1446   3.439   1.039   4.464 -0.7260 -1.3497 -0.9959
  437SOL    HW2 1447   3.532   1.024   4.344  4.2347 -0.2519  2.4025
  438SOL     OW 1448   1.626   2.734   3.569  0.4530 -0.7442  0.1268
  438SOL    HW1 1449   1.576   2.687   3.636 -1.4252  0.4136 -0.3675
  438SOL    HW2 1450   1.601   2.826   3.581  2.9231 -0.0007  0.1730
  439SOL     OW 1451   3.530   4.800   4.624  0.0573  0.4521 -0.1630
  439SOL    HW1 1452   3.435   4.804   4.632  0.1705 -0.7026  4.5210
  439SOL    HW2 1453   3.545   4.731   4.559 -2.4477 -1.5337  1.1717
  440SOL     OW 1454   1.038   2.201   0.356 -0.0650  0.4350  0.2599
  440SOL    HW1 1455   1.089   2.266   0.308 -1.6249  1.2277 -0.3973
  440SOL    HW2 1456   0.966   2.250   0.395 -0.9178 -0.7804  0.2861
  441SOL     OW 1457   3.625   0.231   1.117  0.0276  0.2296 -0.0828
  441SOL    HW1 1458   3.534   0.215   1.141  0.6099 -1.5151  1.1636
  441SOL    HW2 1459   3.622   0.251   1.024 -1.7929  2.0424  0.2925
  442SOL     OW 1460   3.495   0.092   1.414 -1.2693  1.0651 -0.1873
  442SOL    HW1 1461   3.580   0.131   1.393 -1.1677 -0.5302 -3.2187
  442SOL    HW2 1462   3.445   0.163   1.455  0.8817  2.5642 -0.0254
  443SOL     OW 1463   4.801   2.119   3.058 -0.4083  1.0188  0.2117
  443SOL    HW1 1464   4.803   2.140   3.151  2.7940  1.1138  0.2322
  443SOL    HW2 1465   4.802   2.023   3.055 -0.4299  1.0171  0.2635
  444SOL     OW 1466   3.217   0.422   4.481 -0.2533 -0.1164 -0.2249
  444SOL    HW1 1467   3.268   0.485   4.532 -0.8108  0.6904 -0.6327
  444SOL    HW2 1468   3.193   0.470   4.402 -2.1169 -0.2731  0.1993
  445SOL     OW 1469   1.505   2.698   2.291  0.2035 -0.3812  0.4393
  445SOL    HW1 1470   1.539   2.624   2.342 -0.0918  0.2819  1.6465
  445SOL    HW2 1471   1.570   2.767   2.303 -0.9997  0.5486  1.8967
  446SOL     OW 1472   2.040   1.748   3.646  0.2768 -0.5355 -0.0523
  446SOL    HW1 1473   2.074   1.675   3.593  1.3116 -2.1414  2.5813
  446SOL    HW2 1474   2.115   1.774   3.701 -0.4961  1.5691  0.0780
  447SOL     OW 1475   0.844   4.909   0.677 -0.2282  0.3030  0.1606
  447SOL    HW1 1476   0.756   4.939   0.653 -0.9602 -1.9857 -0.2127
  447SOL    HW2 1477   0.856   4.940   0.767 -1.2734  0.8956  0.1111
  448SOL     OW 1478   4.473   3.835   0.649  0.0473  0.3305 -0.2742
  448SOL    HW1 1479   4.542   3.768   0.646  0.7142  1.0204 -0.7400
  448SOL    HW2 1480   4.408   3.800   0.710  1.4054  0.2307  1.1858
  449SOL     OW 1481   3.472   0.331   2.112  1.1862  0.2745  0.5750
  449SOL    HW1 1482   3.451   0.263   2.176 -0.2320 -0.6663 -0.8273
  449SOL    HW2 1483   3.518   0.284   2.042 -0.2661  0.6159 -0.6530
  450SOL     OW 1484   1.025   4.149   0.221  0.0223 -0.6051 -0.4499
  450SOL    HW1 1485   1.086   4.121   0.288 -0.7022 -2.6330 -0.5543
  450SOL    HW2 1486   1.079   4.165   0.144  0.8985  2.0440  0.6067
  451SOL     OW 1487   0.692   2.733   4.900  0.0462  0.4543  0.3434
  451SOL    HW1 1488   0.707   2.783   4.980  0.6365  2.5994 -1.0320
  451SOL    HW2 1489   0.773   2.740   4.851 -0.4794 -0.3703 -0.6910
  452SOL     OW 1490   3.734   2.347   4.405  0.2793  0.0303  0.3378
  452SOL    HW1 1491   3.795   2.274   4.411 -0.6531 -0.7789  0.2418
  452SOL    HW2 1492   3.775   2.418   4.455  2.3750  0.3060 -1.6551
  453SOL     OW 1493   2.959   4.787   3.298 -0.5105  0.4484 -0.1424
  453SOL    HW1 1494   2.899   4.819   3.366  1.6271  1.1279  1.5428
  453SOL    HW2 1495   3.046   4.800   3.335  0.6998 -0.9261 -2.2969
  454SOL     OW 1496   3.368   1.446   4.461 -0.1201  0.2658  0.2602
  454SOL    HW1 1497   3.284   1.454   4.505 -0.2452 -0.3244  0.1293
  454SOL    HW2 1498   3.367   1.514   4.394 -0.2389  0.6666  0.6671
  455SOL     OW 1499   0.242   2.265   0.816  0.6218  0.3730 -0.3748
  455SOL    HW1 1500   0.239   2.292   0.908  1.2392  0.5577 -0.4048
  455SOL    HW2 1501   0.279   2.177   0.818  1.7566  0.8368 -0.5320
  456SOL     OW 1502   1.001   3.021   4.061  0.1237  0.2173  0.0283
  456SOL    HW1 1503   0.916   2.981   4.045 -0.5228 -0.4408  4.0731
  456SOL    HW2 1504   1.059   2.948   4.084  0.5210  1.0103  1.6912
  457SOL     OW 1505   2.387   3.769   3.523 -0.3148 -0.0417 -0.3553
  457SOL    HW1 1506   2.355   3.859   3.525  1.8366  0.7957 -1.2196
  457SOL    HW2 1507   2.467   3.770   3.574 -1.8629 -2.2662  2.4427
  458SOL     OW 1508   0.239   3.972   1.004 -0.2542  0.1478  0.4875
  458SOL    HW1 1509   0.268   3.989   1.093 -1.7019  0.5616  0.9029
  458SOL    HW2 1510   0.173   3.902   1.013  1.1118 -1.3509 -0.5128
  459SOL     OW 1511   3.626   0.149   2.510  0.4614  0.2399 -0.1206
  459SOL    HW1 1512   3.532   0.131   2.518 -0.0766  1.8289 -2.0927
  459SOL    HW2 1513   3.668   0.074   2.551 -1.6542 -0.4739  0.9142
  460SOL     OW 1514   1.138   1.416   1.390 -0.0072 -0.2542 -0.1250
  460SOL    HW1 1515   1.219   1.373   1.362 -0.3935 -0.1029 -1.5776
  460SOL    HW2 1516   1.072   1.385   1.328 -0.2626  2.5421 -1.4669
  461SOL     OW 1517   3.719   1.862   2.245 -0.1478 -0.2685 -0.4271
  461SOL    HW1 1518   3.679   1.780   2.214  1.7402 -1.3949 -0.0530
  461SOL    HW2 1519   3.661   1.891   2.316 -0.0217 -2.1929  0.5466
  462SOL     OW 1520   4.261   2.873   1.668 -0.0171  0.1831  0.0126
  462SOL    HW1 1521   4.173   2.910   1.677  0.3246  1.5540 -1.6091
  462SOL    HW2 1522   4.253   2.782   1.698 -1.4192  0.9198  2.0398
  463SOL     OW 1523   4.544   1.344   2.821 -0.4040  0.2979 -0.4071
  463SOL    HW1 1524   4.516   1.311   2.906  2.6421 -1.0443  0.2159
  463SOL    HW2 1525   4.481   1.307   2.759 -1.3281 -0.6173  1.0220
  464SOL     OW 1526   0.282   3.366   2.519  0.6904 -0.3143  0.3110
  464SOL    HW1 1527   0.340   3.296   2.491  1.4141  0.1604  0.6152
  464SOL    HW2 1528   0.196   3.342   2.483  0.9760 -1.2355  0.2239
  465SOL     OW 1529   3.600   1.425   3.501 -0.2150  0.1561 -0.2189
  465SOL    HW1 1530   3.633   1.498   3.448 -1.9848 -0.5141 -2.3947
  465SOL    HW2 1531   3.646   1.348   3.466 -0.5611 -0.1487 -0.0053
  466SOL     OW 1532   2.186   0.120   1.025 -0.3560 -0.2530 -0.4050
  466SOL    HW1 1533   2.253   0.187   1.038  0.5473 -1.3443  0.8369
  466SOL    HW2 1534   2.230   0.052   0.975 -0.3150 -1.2426  0.9229
  467SOL     OW 1535   2.398   1.314   2.230 -0.0005  0.7758  0.2766
  467SOL    HW1 1536   2.322   1.368   2.248  0.0311  1.4309 -1.3693
  467SOL    HW2 1537   2.395   1.244   2.295 -0.8569  1.9319  1.5144
  468SOL     OW 1538   2.469   4.378   3.320  0.3036 -0.3906 -0.4695
  468SOL    HW1 1539   2.418   4.454   3.292 -0.9900 -0.8940  0.3784
  468SOL    HW2 1540   2.435   4.306   3.267  0.3961 -0.6692 -0.1537
  469SOL     OW 1541   3.093   1.930   0.565 -0.4886 -0.7735 -0.2453
  469SOL    HW1 1542   3.116   1.894   0.650 -0.9903  2.4859  1.4199
  469SOL    HW2 1543   3.177   1.947   0.522 -0.1565 -0.3196  0.5708
  470SOL     OW 1544   3.434   4.966   0.101  0.6809  0.2035 -0.0407
  470SOL    HW1 1545   3.450   4.999   0.190 -2.3935 -0.8425  1.0463
  470SOL    HW2 1546   3.513   4.917   0.079  1.1547 -0.3742  2.5900
  471SOL     OW 1547   4.609   4.328   3.508 -0.0914 -0.0992 -0.2516
  471SOL    HW1 1548   4.682   4.272   3.534  0.2416  0.2461 -0.4343
  471SOL    HW2 1549   4.553   4.331   3.586 -0.2484 -0.8939 -0.3284
  472SOL     OW 1550   3.664   3.928   2.437 -0.3231 -0.8928 -0.3751
  472SOL    HW1 1551   3.732   3.918   2.504  0.7530  0.8655 -1.1602
  472SOL    HW2 1552   3.597   3.983   2.479  1.1244  1.6428 -1.1938
  473SOL     OW 1553   3.067   0.272   4.815 -0.2317  0.2984 -0.5432
  473SOL    HW1 1554   3.106   0.359   4.808  0.9612 -0.1228  0.4378
  473SOL    HW2 1555   3.129   0.222   4.868 -1.6790 -0.6867  0.3055
  474SOL     OW 1556   3.016   1.863   2.859 -0.4302 -0.4089 -0.6283
  474SOL    HW1 1557   2.949   1.927   2.881  0.2740  0.4393 -0.8827
  474SOL    HW2 1558   3.040   1.823   2.943 -1.1789 -0.6631 -0.5301
  475SOL     OW 1559   0.723   1.910   2.058  0.1886 -0.3758 -0.5146
  475SOL    HW1 1560   0.730   1.956   2.142  2.1209 -0.4322 -0.5915
  475SOL    HW2 1561   0.637   1.934   2.024  0.5770  2.1409  0.0652
  476SOL     OW 1562   2.502   1.333   3.297  0.2755  0.2173  0.3575
  476SOL    HW1 1563   2.498   1.321   3.392  1.0853  1.8346  0.6232
  476SOL    HW2 1564   2.554   1.412   3.285 -0.1253  0.2434 -1.4283
  477SOL     OW 1565   0.756   2.902   2.117 -0.4333 -0.2233 -0.2693
  477SOL    HW1 1566   0.836   2.875   2.162 -0.6877  0.3967  0.5827
  477SOL    HW2 1567   0.715   2.964   2.177 -0.6576  0.8192 -1.4641
  478SOL     OW 1568   1.076   2.093   1.489  0.2361  0.1921  0.6017
  478SOL    HW1 1569   1.076   2.132   1.402 -2.0936  0.1725  0.5294
  478SOL    HW2 1570   1.039   2.161   1.546  0.7879 -0.1588  1.4052
  479SOL     OW 1571   0.581   4.600   2.087 -0.2012  0.4191 -0.2164
  479SOL    HW1 1572   0.634   4.603   2.166 -0.6656 -2.9622  0.3834
  479SOL    HW2 1573   0.621   4.531   2.034 -0.8798  1.4790 -2.2083
  480SOL     OW 1574   4.876   4.205   2.785  0.2293 -0.0524  0.2375
  480SOL    HW1 1575   4.823   4.127   2.799 -0.4509  0.6237  1.5867
  480SOL    HW2 1576   4.909   4.228   2.872 -1.3704  2.3851  0.3186
  481SOL     OW 1577   4.074   3.764   0.901 -0.2088 -0.4106  0.5490
  481SOL    HW1 1578   3.991   3.727   0.871  0.0060 -0.4003 -0.0697
  481SOL    HW2 1579   4.071   3.855   0.871 -0.6924  0.0702  1.9705
  482SOL     OW 1580   1.773   2.079   2.754  0.4755 -0.1409  0.1556
  482SOL    HW1 1581   1.840   2.143   2.780 -1.7176  2.4763 -0.2960
  482SOL    HW2 1582   1.697   2.131   2.732 -1.7890 -2.9943  0.6469
  483SOL     OW 1583   4.326   4.654   2.181  0.5652  0.7941 -0.1839
  483SOL    HW1 1584   4.258   4.597   2.144 -0.9854  1.0838  2.0192
  483SOL    HW2 1585   4.296   4.743   2.160 -1.3806  1.0901  3.0295
  484SOL     OW 1586   3.833   3.198   2.429 -0.3017 -0.1674  0.2104
  484SOL    HW1 1587   3.898   3.228   2.492  0.4144 -0.9291 -0.1465
  484SOL    HW2 1588   3.857   3.107   2.411 -0.1287  0.1994 -1.5984
  485SOL     OW 1589   3.365   0.462   2.664 -0.1639 -0.6672  0.1217
  485SOL    HW1 1590   3.308   0.431   2.734 -1.2633  1.0271  0.0238
  485SOL    HW2 1591   3.305   0.496   2.598  0.9406  0.8390 -0.1429
  486SOL     OW 1592   4.151   0.180   4.756  1.1686  0.5538  0.1059
  486SOL    HW1 1593   4.092   0.148   4.824  0.7517 -0.5861 -0.7585
  486SOL    HW2 1594   4.105   0.255   4.718  1.7466  1.6842  1.5505
  487SOL     OW 1595   4.840   3.073   3.726  0.1116 -0.2035  0.4370
  487SOL    HW1 1596   4.924   3.033   3.705 -0.2397 -0.2204 -1.0584
  487SOL    HW2 1597   4.830   3.143   3.661 -1.3301 -0.6426  0.1332
  488SOL     OW 1598   2.046   0.026   4.650  0.1324 -0.0026  0.0721
  488SOL    HW1 1599   1.968   0.036   4.596  0.2830  2.1351  0.1944
  488SOL    HW2 1600   2.017   0.046   4.739  0.7778  0.7276  0.1294
  489SOL     OW 1601   3.938   2.736   1.398  0.2351 -0.2431 -0.1520
  489SOL    HW1 1602   3.848   2.724   1.369  0.7437 -1.1434 -1.4756
  489SOL    HW2 1603   3.966   2.650   1.428  0.8075 -0.0984 -0.2446
  490SOL     OW 1604   1.237   4.719   3.238 -1.2166 -0.4257 -0.0851
  490SOL    HW1 1605   1.289   4.786   3.283 -0.5770 -0.4236 -0.8103
  490SOL    HW2 1606   1.155   4.716   3.287  0.0950 -1.6559  2.1428
  491SOL     OW 1607   2.826   2.477   2.776  0.5158 -0.1178  0.3149
  491SOL    HW1 1608   2.847   2.403   2.833  0.2498 -1.1265 -0.8536
  491SOL    HW2 1609   2.845   2.446   2.688  2.7790  2.0709 -0.0729
  492SOL     OW 1610   1.968   0.306   0.679  0.3953  0.2184 -0.0456
  492SOL    HW1 1611   1.996   0.397   0.689  1.5950  0.1848 -2.3589
  492SOL    HW2 1612   2.049   0.258   0.662 -0.0547 -1.5566  2.4015
  493SOL     OW 1613   2.009   3.987   0.423  0.0061 -0.3037 -0.5061
  493SOL    HW1 1614   1.965   4.037   0.492  0.0135  0.5692 -1.1175
  493SOL    HW2 1615   2.101   4.016   0.427 -0.5025  2.0068 -2.7486
  494SOL     OW 1616   4.728   4.759   1.407  0.3365  0.1470  0.6561
  494SOL    HW1 1617   4.823   4.753   1.418  0.7592  2.8731 -0.5358
  494SOL    HW2 1618   4.697   4.795   1.490  0.5545  0.5721  0.5562
  495SOL     OW 1619   0.676   2.265   2.491  0.0773 -0.7309  0.2041
  495SOL    HW1 1620   0.694   2.176   2.522  1.1769 -0.3840  0.5869
  495SOL    HW2 1621   0.638   2.310   2.566 -2.3342 -1.3872 -0.5279
  496SOL     OW 1622   3.667   4.242   1.613 -0.1094  0.5021  0.5421
  496SOL    HW1 1623   3.655   4.195   1.695  1.6621 -0.3227  0.3728
  496SOL    HW2 1624   3.727   4.313   1.635  0.6030  0.1072 -0.0740
  497SOL     OW 1625   3.816   4.089   3.011  0.4636  0.3826  0.4008
  497SOL    HW1 1626   3.865   4.067   2.932 -0.8926  0.5075 -0.5072
  497SOL    HW2 1627   3.747   4.023   3.016 -0.9543  1.7533  0.0868
  498SOL     OW 1628   4.266   2.368   1.757  0.0357  0.1496 -0.1773
  498SOL    HW1 1629   4.318   2.330   1.687  0.3030 -0.8537  0.5346
  498SOL    HW2 1630   4.275   2.307   1.830 -1.7663  0.1640  0.1250
  499SOL     OW 1631   4.163   0.090   3.503 -0.0761 -0.1281  0.0096
  499SOL    HW1 1632   4.247   0.069   3.462  0.4465 -0.6298  1.2810
  499SOL    HW2 1633   4.178   0.174   3.547  0.0900 -0.7153  1.0969
  500SOL     OW 1634   2.095   0.939   4.676  0.5245 -0.0604 -0.2841
  500SOL    HW1 1635   2.058   0.873   4.735  1.0615  1.3175  1.6901
  500SOL    HW2 1636   2.183   0.908   4.657  0.2853 -0.6043 -0.5225
  501SOL     OW 1637   4.576   3.965   0.079  0.3369  0.7757 -0.1766
  501SOL    HW1 1638   4.529   3.917   0.147 -1.2036  1.0651 -1.0072
  501SOL    HW2 1639   4.571   3.909   0.002  2.6301  0.1532  0.0534
  502SOL     OW 1640   2.752   3.620   1.956  0.1067  0.2628  0.3851
  502SOL    HW1 1641   2.695   3.629   1.880  1.2721  0.4913 -0.4856
  502SOL    HW2 1642   2.723   3.689   2.016  0.7100  1.6628 -0.8773
  503SOL     OW 1643   1.805   1.514   4.419 -0.4579 -0.2187  0.3847
  503SOL    HW1 1644   1.882   1.468   4.384 -1.1199  0.2711 -1.8935
  503SOL    HW2 1645   1.842   1.592   4.462  0.4623 -1.3687  1.7908
  504SOL     OW 1646   2.528   4.964   0.216 -0.0312  0.0533 -0.3478
  504SOL    HW1 1647   2.575   4.979   0.134 -1.0695  0.2703 -0.9259
  504SOL    HW2 1648   2.481   5.045   0.233 -1.6534 -0.7445 -0.7897
  505SOL     OW 1649   3.758   3.537   1.611 -0.1798 -0.4821  0.5396
  505SOL    HW1 1650   3.730   3.457   1.656  0.5324 -0.3396  1.2464
  505SOL    HW2 1651   3.755   3.605   1.678 -2.0606  0.4072 -0.3360
  506SOL     OW 1652   4.480   1.037   3.085 -0.1793  0.7697 -0.1770
  506SOL    HW1 1653   4.561   1.087   3.081 -0.0239  0.4625 -1.4196
  506SOL    HW2 1654   4.465   1.022   3.178  0.8309  1.4008  0.0990
  507SOL     OW 1655   1.807   3.462   2.146  0.4950  0.1824 -0.2071
  507SOL    HW1 1656   1.740   3.395   2.161  0.0232  0.3970 -1.2717
  507SOL    HW2 1657   1.889   3.418   2.167  0.2193 -0.8522 -1.1841
  508SOL     OW 1658   2.675   4.759   4.413  0.0081 -0.0639  0.7867
  508SOL    HW1 1659   2.754   4.792   4.456  0.4595 -1.0079  0.7173
  508SOL    HW2 1660   2.706   4.722   4.331 -0.7890  1.3189 -0.1766
  509SOL     OW 1661   2.432   0.465   1.815 -0.2595  0.7639 -0.1810
  509SOL    HW1 1662   2.395   0.434   1.733 -0.7723 -1.1144  0.7147
  509SOL    HW2 1663   2.417   0.559   1.814 -2.1959  0.4894 -1.2758
  510SOL     OW 1664   3.101   2.137   3.005  0.0820 -0.1938  0.3529
  510SOL    HW1 1665   3.055   2.137   2.921  0.0607 -0.0906  0.3646
  510SOL    HW2 1666   3.194   2.131   2.980  0.1914  1.4733  0.2525
  511SOL     OW 1667   2.941   4.285   0.906  0.1169 -0.4137  0.3255
  511SOL    HW1 1668   3.035   4.274   0.889 -0.1818 -0.9946 -1.0966
  511SOL    HW2 1669   2.900   4.279   0.820 -1.0609  1.9557  0.6384
  512SOL     OW 1670   4.562   3.004   3.107  0.0479  0.0230 -0.8794
  512SOL    HW1 1671   4.521   3.075   3.058  1.3797  1.5309  0.0773
  512SOL    HW2 1672   4.639   2.980   3.055  1.5566  1.7393  0.4327
  513SOL     OW 1673   4.794   0.069   2.827  0.4242 -0.0392 -0.1871
  513SOL    HW1 1674   4.809   0.045   2.919 -1.9089 -0.5036  0.1282
  513SOL    HW2 1675   4.843   0.151   2.816  1.2102 -0.2721  1.2879
  514SOL     OW 1676   4.221   4.653   3.462 -0.1680  0.1912  0.0863
  514SOL    HW1 1677   4.283   4.640   3.534 -0.3829 -0.3225  0.1768
  514SOL    HW2 1678   4.142   4.606   3.489  0.2286 -1.2265 -1.1079
  515SOL     OW 1679   0.096   2.540   3.025 -0.0917  0.1464 -0.4544
  515SOL    HW1 1680   0.082   2.594   2.948 -0.3864  0.2948 -0.3013
  515SOL    HW2 1681   0.031   2.470   3.017 -0.9747  0.8494  0.2743
  516SOL     OW 1682   1.963   2.517   1.489  0.0429 -0.0437  0.3310
  516SOL    HW1 1683   1.975   2.601   1.533 -0.3128 -0.1562  0.6404
  516SOL    HW2 1684   1.985   2.452   1.556  0.3048 -0.2015  0.0957
  517SOL     OW 1685   2.824   3.908   1.003 -0.1177 -0.3648 -1.1996
  517SOL    HW1 1686   2.892   3.901   1.070 -0.5013  2.2203 -0.4282
  517SOL    HW2 1687   2.865   3.873   0.923  0.8237 -2.2093  0.0168
  518SOL     OW 1688   2.112   4.106   2.842  0.3696 -0.7387 -0.0738
  518SOL    HW1 1689   2.175   4.140   2.779 -1.9126  4.0087 -0.2601
  518SOL    HW2 1690   2.149   4.127   2.928  0.4200 -0.8915 -0.0570
  519SOL     OW 1691   1.183   4.048   0.590  0.5961 -0.4378 -0.6450
  519SOL    HW1 1692   1.102   4.016   0.631  1.3998 -2.4204 -0.4825
  519SOL    HW2 1693   1.233   4.085   0.662 -1.0557  3.0256 -1.0846
  520SOL     OW 1694   1.906   2.200   4.247 -0.0673  0.2289 -0.0595
  520SOL    HW1 1695   1.933   2.145   4.320 -0.2463 -0.6320 -0.6249
  520SOL    HW2 1696   1.841   2.148   4.200  0.8087  0.3020 -1.4380
  521SOL     OW 1697   0.228   1.435   3.566 -0.1292 -0.2577 -0.0746
  521SOL    HW1 1698   0.277   1.362   3.529  0.1686 -0.1118  0.0255
  521SOL    HW2 1699   0.272   1.513   3.532 -0.5078 -0.1231 -0.2656
  522SOL     OW 1700   2.112   4.801   4.260  0.1546 -0.2342 -1.0413
  522SOL    HW1 1701   2.096   4.809   4.166  1.1128  0.4970 -1.1636
  522SOL    HW2 1702   2.178   4.868   4.278 -2.0758  1.6500  0.6738
  523SOL     OW 1703   1.242   3.749   0.357  0.4173 -0.6752 -1.0976
  523SOL    HW1 1704   1.158   3.709   0.380  1.1370 -0.7322  1.8575
  523SOL    HW2 1705   1.307   3.681   0.379  1.4093  0.5571 -0.1003
  524SOL     OW 1706   4.248   1.732   1.625  0.2303  0.2753 -0.3850
  524SOL    HW1 1707   4.229   1.664   1.561 -0.9993 -0.9786  1.2113
  524SOL    HW2 1708   4.170   1.734   1.681  0.1646  3.1020 -0.4414
  525SOL     OW 1709   2.733   2.304   0.450  0.2197 -0.4903  0.4417
  525SOL    HW1 1710   2.765   2.227   0.498 -2.2308 -1.8804  0.0510
  525SOL    HW2 1711   2.660   2.336   0.503 -1.6278 -1.1909 -1.5170
  526SOL     OW 1712   0.504   1.307   3.244 -0.0832 -0.5552 -0.1172
  526SOL    HW1 1713   0.488   1.372   3.176 -0.3866  0.1125  0.5783
  526SOL    HW2 1714   0.524   1.227   3.196  0.0724 -0.0103 -0.9884
  527SOL     OW 1715   0.721   4.506   1.837 -0.7880  0.1826 -0.1653
  527SOL    HW1 1716   0.661   4.432   1.825  0.1242 -0.3892 -1.3240
  527SOL    HW2 1717   0.807   4.471   1.815 -0.2552  1.4538 -0.1695
  528SOL     OW 1718   2.970   1.361   2.394 -0.5076  0.3610  0.2432
  528SOL    HW1 1719   3.057   1.338   2.360 -0.5278  1.7544 -0.8463
  528SOL    HW2 1720   2.965   1.317   2.478 -0.2272 -2.7864 -1.2446
  529SOL     OW 1721   2.378   0.082   3.274  0.3449  0.3324 -0.0161
  529SOL    HW1 1722   2.349  -0.007   3.254 -3.3753  1.7690 -2.1223
  529SOL    HW2 1723   2.473   0.080   3.264  0.6992 -3.7940  2.2412
  530SOL     OW 1724   1.272   2.308   1.766 -0.4444 -0.0924 -0.0789
  530SOL    HW1 1725   1.268   2.397   1.801  0.9047 -0.5503  1.3713
  530SOL    HW2 1726   1.363   2.298   1.739  0.1170 -1.8374  2.1776
  531SOL     OW 1727   2.232   2.690   3.512 -0.1424 -0.5537 -0.0875
  531SOL    HW1 1728   2.140   2.718   3.514 -0.2090 -0.8136  0.6186
  531SOL    HW2 1729   2.232   2.614   3.455 -0.1073  0.3232 -1.2994
  532SOL     OW 1730   0.188   1.790   4.811 -0.2016  0.2412 -0.2458
  532SOL    HW1 1731   0.183   1.886   4.808  0.6160  0.2731 -2.5012
  532SOL    HW2 1732   0.144   1.761   4.732 -3.1341 -1.4986  1.8216
  533SOL     OW 1733   2.430   2.391   0.325  0.3961 -0.6245  0.4681
  533SOL    HW1 1734   2.501   2.347   0.279  1.6242  0.7481  0.9836
  533SOL    HW2 1735   2.457   2.393   0.417 -0.1450  0.2046  0.6242
  534SOL     OW 1736   1.623   2.012   2.186 -0.3749 -0.5567  0.0439
  534SOL    HW1 1737   1.675   2.081   2.228 -0.7714  1.5835 -2.6952
  534SOL    HW2 1738   1.533   2.044   2.189 -0.4060 -0.2489 -2.3820
  535SOL     OW 1739   1.733   4.626   1.422  0.4079 -0.1312 -0.0320
  535SOL    HW1 1740   1.727   4.600   1.330 -1.2484 -0.4423  0.1298
  535SOL    HW2 1741   1.756   4.719   1.420  0.7174 -0.2243 -0.7574
  536SOL     OW 1742   4.491   0.827   3.726 -0.5874  0.3185  0.0366
  536SOL    HW1 1743   4.547   0.885   3.777 -1.7746  0.2544  1.4879
  536SOL    HW2 1744   4.535   0.819   3.641  1.1306  0.9374  0.8245
  537SOL     OW 1745   1.474   3.211   0.747 -0.0565 -0.4549 -0.3499
  537SOL    HW1 1746   1.521   3.129   0.741 -0.0185 -0.5019  0.4401
  537SOL    HW2 1747   1.514   3.257   0.821  0.0372  0.3496 -0.8821
  538SOL     OW 1748   3.282   3.984   0.045 -0.2022 -0.0097  0.4375
  538SOL    HW1 1749   3.223   4.059   0.040 -0.5824 -0.3000  0.5538
  538SOL    HW2 1750   3.224   3.908   0.037  0.2406 -0.2783 -0.2903
  539SOL     OW 1751   0.140   0.315   0.538 -0.5440  0.4010 -0.4820
  539SOL    HW1 1752   0.090   0.332   0.618 -2.0782  0.6636 -1.4629
  539SOL    HW2 1753   0.177   0.400   0.514  0.9038  0.1031  0.5424
  540SOL     OW 1754   0.149   0.656   1.558 -0.4313 -0.2023  0.3401
  540SOL    HW1 1755   0.216   0.629   1.496 -1.1432 -3.0695  0.6625
  540SOL    HW2 1756   0.105   0.730   1.516  4.1243  3.3529  1.0566
  541SOL     OW 1757   4.591   2.943   2.622 -0.3514 -0.1412  0.3723
  541SOL    HW1 1758   4.674   2.939   2.573 -0.2942 -0.0197  0.4567
  541SOL    HW2 1759   4.546   2.862   2.600 -1.0684  0.6448 -1.1947
  542SOL     OW 1760   2.271   2.512   4.187  0.1983 -0.1096  0.3718
  542SOL    HW1 1761   2.211   2.463   4.130 -1.3162  0.9105  1.0385
  542SOL    HW2 1762   2.216   2.549   4.255  1.6804  0.4263  1.3378
  543SOL     OW 1763   1.897   3.830   4.243  0.4408 -0.0169  0.3151
  543SOL    HW1 1764   1.804   3.807   4.233  0.3720  0.4208 -0.0569
  543SOL    HW2 1765   1.906   3.914   4.198  1.0616 -0.1524  0.1780
  544SOL     OW 1766   2.736   0.773   0.785 -0.6114 -0.0543  0.3888
  544SOL    HW1 1767   2.795   0.841   0.818 -1.7457  0.6520  1.0132
  544SOL    HW2 1768   2.759   0.695   0.836 -1.2713  0.6229  1.7863
  545SOL     OW 1769   2.563   1.239   0.787 -0.8096 -0.0212  0.0388
  545SOL    HW1 1770   2.606   1.156   0.808 -0.2771  0.3480  0.4717
  545SOL    HW2 1771   2.621   1.305   0.826 -0.9456  0.5780 -0.7590
  546SOL     OW 1772   4.226   4.632   0.511 -0.0186 -0.1422 -0.1588
  546SOL    HW1 1773   4.166   4.698   0.476  0.8080  0.7545  0.0978
  546SOL    HW2 1774   4.245   4.661   0.600  1.0345 -0.2573 -0.3357
  547SOL     OW 1775   1.137   1.848   3.316 -0.6924 -0.3970 -0.1265
  547SOL    HW1 1776   1.056   1.888   3.348  0.0693 -0.3952  1.9523
  547SOL    HW2 1777   1.202   1.918   3.319 -0.7651 -0.0970 -2.8051
  548SOL     OW 1778   2.167   3.506   0.131  0.0836 -0.0929  0.2072
  548SOL    HW1 1779   2.072   3.498   0.129  0.2130 -2.1958  0.1686
  548SOL    HW2 1780   2.186   3.586   0.082 -1.6480  0.3158  0.1507
  549SOL     OW 1781   2.138   1.660   3.234 -0.3496  0.0374 -0.3217
  549SOL    HW1 1782   2.227   1.659   3.198 -0.5059  0.1827 -0.7224
  549SOL    HW2 1783   2.090   1.597   3.181 -0.0676 -1.3539  1.0201
  550SOL     OW 1784   3.159   3.001   0.874 -0.3791  0.2037  0.3783
  550SOL    HW1 1785   3.160   2.926   0.814  2.2034 -1.1144  1.9114
  550SOL    HW2 1786   3.207   3.069   0.827 -1.3539  0.4066 -0.3728
  551SOL     OW 1787   4.277   3.172   2.884  0.3482 -0.4180 -0.4793
  551SOL    HW1 1788   4.259   3.141   2.795  1.2962 -0.7266 -0.5716
  551SOL    HW2 1789   4.371   3.187   2.886  0.3215 -0.2998  0.4451
  552SOL     OW 1790   4.203   4.022   3.165  0.0437  0.6510 -0.5102
  552SOL    HW1 1791   4.291   3.985   3.163 -0.8171 -1.5832 -0.2835
  552SOL    HW2 1792   4.197   4.074   3.085  0.6800 -1.4313 -1.9993
  553SOL     OW 1793   2.784   4.161   1.114  0.1218  0.4090 -0.0554
  553SOL    HW1 1794   2.838   4.217   1.058 -0.3327  0.8909 -0.0156
  553SOL    HW2 1795   2.778   4.078   1.066 -1.8514  1.4109 -1.6745
  554SOL     OW 1796   1.022   3.159   1.442  0.1134  0.5930 -0.5651
  554SOL    HW1 1797   1.064   3.245   1.442 -0.7316  1.0204  0.2934
  554SOL    HW2 1798   0.937   3.174   1.400 -0.3625  0.3562  0.2838
  555SOL     OW 1799   1.634   3.620   2.313  0.1034  1.0003 -0.1163
  555SOL    HW1 1800   1.589   3.562   2.252 -1.9511  0.0360  2.1290
  555SOL    HW2 1801   1.726   3.595   2.307 -0.2659 -0.1205 -1.6690
  556SOL     OW 1802   2.419   4.902   1.409 -0.0072 -0.0038 -0.1209
  556SOL    HW1 1803   2.498   4.848   1.416  0.4950  0.3853 -2.0686
  556SOL    HW2 1804   2.387   4.910   1.499  1.7161 -0.8391  0.6137
  557SOL     OW 1805   3.593   2.113   0.401 -0.0900  0.5215 -0.2509
  557SOL    HW1 1806   3.661   2.178   0.382 -0.2766  1.2745  1.5382
  557SOL    HW2 1807   3.639   2.029   0.397  0.4354  0.8384 -1.2917
  558SOL     OW 1808   0.139   1.487   1.322 -0.0279  0.3399  0.0686
  558SOL    HW1 1809   0.098   1.569   1.351  0.1638 -0.2216  2.0560
  558SOL    HW2 1810   0.069   1.423   1.324 -0.1169  0.3656 -1.2418
  559SOL     OW 1811   1.045   4.813   0.275  0.4740 -0.3622 -0.1217
  559SOL    HW1 1812   0.972   4.780   0.329  0.2991  0.5633  0.2225
  559SOL    HW2 1813   1.114   4.833   0.338  1.3348 -1.9268 -0.5056
  560SOL     OW 1814   4.972   1.597   0.269 -0.0836 -0.3450 -0.3238
  560SOL    HW1 1815   4.924   1.561   0.195  1.2047 -1.0874 -0.8296
  560SOL    HW2 1816   5.012   1.677   0.236 -1.6996  0.8208  0.3756
  561SOL     OW 1817   0.189   4.375   3.210  0.0926 -0.0912 -0.1412
  561SOL    HW1 1818   0.110   4.422   3.237 -0.2337 -1.2843  1.1468
  561SOL    HW2 1819   0.175   4.285   3.242  1.6393 -0.5085 -0.5544
  562SOL     OW 1820   3.188   1.366   1.056  0.0524  0.0021  0.0866
  562SOL    HW1 1821   3.126   1.424   1.012 -0.9508 -0.7161  0.5423
  562SOL    HW2 1822   3.223   1.310   0.987 -0.4494 -0.1744 -0.0200
  563SOL     OW 1823   3.302   0.513   3.429  0.1334  0.6389 -0.4005
  563SOL    HW1 1824   3.260   0.476   3.352  0.3377 -1.2592  0.3430
  563SOL    HW2 1825   3.390   0.476   3.429  1.0171  2.6155 -0.5895
  564SOL     OW 1826   1.506   4.063   0.370 -0.0201 -0.1399 -0.2253
  564SOL    HW1 1827   1.416   4.045   0.342 -0.6094  0.3767  1.2831
  564SOL    HW2 1828   1.499   4.135   0.432  1.5194  0.3598 -0.5732
  565SOL     OW 1829   1.520   1.464   3.744 -0.1264  0.3058  0.4166
  565SOL    HW1 1830   1.462   1.538   3.764 -1.4344 -0.3444 -0.7928
  565SOL    HW2 1831   1.556   1.484   3.658 -2.2620 -1.4196 -1.0002
  566SOL     OW 1832   4.420   0.349   0.808 -0.3035 -0.9441  0.5937
  566SOL    HW1 1833   4.428   0.363   0.902  3.1182 -0.5272  0.3357
  566SOL    HW2 1834   4.461   0.264   0.793 -1.6963 -1.4784 -0.4706
  567SOL     OW 1835   4.016   2.327   4.680  0.9921  0.1869 -0.0835
  567SOL    HW1 1836   4.033   2.246   4.727 -1.1642 -0.4886 -0.3670
  567SOL    HW2 1837   4.099   2.349   4.639  1.5110 -2.1358 -0.3860
  568SOL     OW 1838   1.679   4.702   0.414 -0.3207  0.3225  0.2472
  568SOL    HW1 1839   1.644   4.761   0.481 -0.0489 -0.0873  0.7517
  568SOL    HW2 1840   1.754   4.660   0.455  0.4931  0.8341 -0.6723
  569SOL     OW 1841   2.700   3.489   2.588  0.2504  0.1285  0.1632
  569SOL    HW1 1842   2.675   3.581   2.575 -0.2271  0.0821  0.7208
  569SOL    HW2 1843   2.784   3.481   2.544 -1.8071 -0.3545 -4.1883
  570SOL     OW 1844   4.559   0.508   3.677  0.4842  0.1309 -0.0922
  570SOL    HW1 1845   4.575   0.468   3.763  0.0681 -0.3515 -0.2327
  570SOL    HW2 1846   4.538   0.599   3.697  0.1406 -0.0378  0.3352
  571SOL     OW 1847   3.623   1.227   1.494 -0.5475 -0.2882  0.3876
  571SOL    HW1 1848   3.693   1.258   1.437  0.7620 -1.1215  1.4758
  571SOL    HW2 1849   3.577   1.161   1.442 -2.7045  2.5095 -1.5612
  572SOL     OW 1850   1.291   4.721   1.855 -0.0802  0.5872 -0.2606
  572SOL    HW1 1851   1.227   4.787   1.884  0.1769  0.2725  1.0975
  572SOL    HW2 1852   1.239   4.656   1.808 -0.9531 -0.1251  1.5902
  573SOL     OW 1853   1.564   0.984   3.643 -0.8636  0.1745  0.1594
  573SOL    HW1 1854   1.588   1.069   3.680 -2.7654  0.3500  1.1317
  573SOL    HW2 1855   1.591   0.989   3.551  2.3967  0.3924  0.9958
  574SOL     OW 1856   3.984   1.230   3.370 -0.6929  0.4126 -0.3772
  574SOL    HW1 1857   4.021   1.314   3.342  0.2913  0.5990  1.4054
  574SOL    HW2 1858   4.018   1.216   3.458 -3.5455 -0.2192  0.7441
  575SOL     OW 1859   4.832   4.202   1.907 -0.2644 -0.2904  0.4337
  575SOL    HW1 1860   4.818   4.221   1.814 -0.4048  2.4073  0.9336
  575SOL    HW2 1861   4.745   4.180   1.940 -0.0817 -2.1241 -0.1905
  576SOL     OW 1862   2.628   1.937   4.257  0.1116 -1.0856 -0.7266
  576SOL    HW1 1863   2.691   1.977   4.197 -0.0423  1.1353  0.4739
  576SOL    HW2 1864   2.548   1.989   4.247 -0.5803 -1.9903 -0.0966
  577SOL     OW 1865   1.806   0.686   3.653 -0.0416  0.1176  0.3837
  577SOL    HW1 1866   1.858   0.605   3.654  0.9015  0.7095  0.7489
  577SOL    HW2 1867   1.732   0.666   3.595  1.5927 -0.1295 -1.7150
  578SOL     OW 1868   2.573   2.072   1.352 -0.2925 -0.4564 -0.0849
  578SOL    HW1 1869   2.617   2.154   1.373 -0.1036 -0.8391  1.0625
  578SOL    HW2 1870   2.624   2.036   1.279 -0.2649  0.3424 -0.4682
  579SOL     OW 1871   2.345   1.206   1.308 -0.1848  0.1790 -0.6544
  579SOL    HW1 1872   2.426   1.193   1.356  0.2413 -0.5513 -1.5512
  579SOL    HW2 1873   2.372   1.232   1.220 -0.9157 -0.0098 -0.9509
  580SOL     OW 1874   2.199   4.596   0.204 -0.3857  0.2306  0.1833
  580SOL    HW1 1875   2.288   4.611   0.170 -0.1564 -1.0697  0.1805
  580SOL    HW2 1876   2.188   4.663   0.271  0.1588  1.1454 -0.6007
  581SOL     OW 1877   4.640   4.621   4.708  0.0792 -0.3525 -0.3321
  581SOL    HW1 1878   4.701   4.575   4.766 -2.8557 -0.7723  2.7582
  581SOL    HW2 1879   4.639   4.711   4.741 -0.6559 -0.2606 -0.5910
  582SOL     OW 1880   1.630   1.546   3.176 -0.0954  0.2908 -0.9331
  582SOL    HW1 1881   1.725   1.549   3.184 -0.2390  1.4954  0.8077
  582SOL    HW2 1882   1.614   1.539   3.082  1.7039 -1.0936 -1.2062
  583SOL     OW 1883   4.238   1.011   0.760  0.3463  0.3471 -0.1900
  583SOL    HW1 1884   4.293   1.045   0.831 -0.4432 -0.3073  0.7490
  583SOL    HW2 1885   4.301   0.975   0.697  1.1164  1.9962 -0.4122
  584SOL     OW 1886   4.183   3.915   4.518  0.1556 -0.8529 -0.2495
  584SOL    HW1 1887   4.243   3.980   4.482 -0.9566  0.7346  0.6663
  584SOL    HW2 1888   4.219   3.893   4.604  1.0880 -2.2966 -0.9497
  585SOL     OW 1889   0.569   0.805   4.673 -0.0884 -0.6649  0.2336
  585SOL    HW1 1890   0.625   0.763   4.607 -0.0373  0.5114 -0.4998
  585SOL    HW2 1891   0.493   0.747   4.680  0.5201 -1.4952  0.1333
  586SOL     OW 1892   2.073   2.351   2.397 -0.1935  0.2673 -0.1968
  586SOL    HW1 1893   2.017   2.428   2.386 -1.2839 -0.2863  1.2601
  586SOL    HW2 1894   2.143   2.364   2.332 -0.8088  2.0454 -0.5779
  587SOL     OW 1895   0.796   2.344   0.060 -0.0218  0.3416 -0.1221
  587SOL    HW1 1896   0.829   2.434   0.056  2.5924 -0.5186 -0.1259
  587SOL    HW2 1897   0.855   2.295   0.003  0.2530 -1.8065  1.8809
  588SOL     OW 1898   2.666   4.661   4.122  0.6930  0.4074 -0.0469
  588SOL    HW1 1899   2.718   4.713   4.061  1.7341  2.0104  2.0906
  588SOL    HW2 1900   2.576   4.670   4.090  1.2601  0.6657 -1.6759
  589SOL     OW 1901   3.639   3.292   1.743 -0.1709 -0.0982  0.0502
  589SOL    HW1 1902   3.577   3.219   1.744  1.2591 -1.3819  1.9950
  589SOL    HW2 1903   3.705   3.269   1.809  0.4670  2.8780  0.6018
  590SOL     OW 1904   1.038   2.870   0.776 -0.2442  0.0735 -0.0663
  590SOL    HW1 1905   1.067   2.958   0.800  1.0103 -0.4807  0.5790
  590SOL    HW2 1906   1.103   2.840   0.712 -0.9111 -0.2161 -0.6128
  591SOL     OW 1907   3.360   4.556   3.366 -0.1335 -0.0125 -0.2235
  591SOL    HW1 1908   3.407   4.493   3.422  0.6983  2.2731  1.8393
  591SOL    HW2 1909   3.345   4.509   3.284 -0.8028 -3.3683  1.6170
  592SOL     OW 1910   1.623   1.871   2.974 -0.3133  0.1119  0.5100
  592SOL    HW1 1911   1.695   1.865   2.911 -0.2764  2.9562  0.1627
  592SOL    HW2 1912   1.639   1.953   3.021 -3.7089  1.3360 -0.1578
  593SOL     OW 1913   1.606   0.356   4.180  0.6786 -0.9491 -0.0994
  593SOL    HW1 1914   1.652   0.298   4.119  1.2309 -0.4531 -0.1597
  593SOL    HW2 1915   1.552   0.412   4.123  2.2402  0.4541 -0.2713
  594SOL     OW 1916   1.656   4.794   2.640 -0.0665  0.0017 -0.2500
  594SOL    HW1 1917   1.598   4.718   2.629 -0.2900  0.1484 -0.0817
  594SOL    HW2 1918   1.680   4.791   2.732  0.3004 -0.1351 -0.3498
  595SOL     OW 1919   0.077   2.203   1.143  0.3984 -0.8132 -0.0894
  595SOL    HW1 1920   0.155   2.254   1.167  0.5467 -1.5634  1.1367
  595SOL    HW2 1921   0.010   2.234   1.204  0.3135 -1.6112  0.2278
  596SOL     OW 1922   3.835   3.276   3.638 -0.0571  0.0846 -0.3504
  596SOL    HW1 1923   3.836   3.372   3.632 -2.4676  0.1138 -1.6194
  596SOL    HW2 1924   3.753   3.256   3.685  1.4209 -1.3653  1.8139
  597SOL     OW 1925   0.781   2.704   0.670  0.5548  0.1349  0.1839
  597SOL    HW1 1926   0.876   2.689   0.668  0.5609 -0.2672  1.7542
  597SOL    HW2 1927   0.743   2.617   0.666  0.3051  0.2137  0.7055
  598SOL     OW 1928   2.603   1.666   4.672 -0.0592 -0.2093 -0.6350
  598SOL    HW1 1929   2.542   1.711   4.731  0.8277  0.4976 -0.2490
  598SOL    HW2 1930   2.655   1.735   4.632  1.7756 -0.8938  0.4584
  599SOL     OW 1931   1.647   2.241   4.832 -0.3572 -0.1901 -0.1080
  599SOL    HW1 1932   1.721   2.301   4.834 -0.4173 -0.1202  0.0960
  599SOL    HW2 1933   1.581   2.283   4.887 -0.4598 -0.3638 -0.0983
  600SOL     OW 1934   1.717   2.958   0.061 -0.3931  0.1295 -0.0982
  600SOL    HW1 1935   1.655   3.018   0.020 -0.2463  0.3512 -0.0037
  600SOL    HW2 1936   1.735   2.997   0.147  1.6612  1.3508 -1.0083
  601SOL     OW 1937   4.592   4.749   4.031 -0.3329  0.2469  0.0466
  601SOL    HW1 1938   4.653   4.819   4.006 -0.9866  0.8685  0.1904
  601SOL    HW2 1939   4.588   4.693   3.953 -0.1262  0.5855 -0.2108
  602SOL     OW 1940   3.486   2.549   0.186 -0.5472  0.4082  0.2457
  602SOL    HW1 1941   3.515   2.458   0.187 -0.0222  0.5623 -0.4087
  602SOL    HW2 1942   3.548   2.594   0.244 -1.8188  0.0740  1.9464
  603SOL     OW 1943   3.363   1.667   0.658 -0.4344 -0.1759  0.3161
  603SOL    HW1 1944   3.456   1.649   0.643 -0.2288  0.9094  0.2112
  603SOL    HW2 1945   3.336   1.718   0.582 -0.5980  1.2436  1.2952
  604SOL     OW 1946   2.001   1.655   1.704  0.3613  0.1233  0.1357
  604SOL    HW1 1947   2.028   1.600   1.777  1.3979  0.1538 -0.2147
  604SOL    HW2 1948   1.966   1.593   1.640 -0.4891  0.0907  0.6177
  605SOL     OW 1949   0.319   4.500   1.321 -0.2276  0.2789 -0.3097
  605SOL    HW1 1950   0.381   4.556   1.275 -0.6098 -0.6163 -1.9972
  605SOL    HW2 1951   0.303   4.545   1.404 -0.5085  2.6398 -1.5607
  606SOL     OW 1952   4.000   2.883   4.964  0.4278  0.0472 -0.2655
  606SOL    HW1 1953   3.985   2.910   4.874  1.6269  0.0793 -0.4647
  606SOL    HW2 1954   3.972   2.959   5.017 -1.0704 -0.2873 -0.5473
  607SOL     OW 1955   4.759   4.224   0.282  0.1509  0.0450  0.7494
  607SOL    HW1 1956   4.742   4.202   0.190  0.9147  1.0321  0.3528
  607SOL    HW2 1957   4.702   4.165   0.332  1.3408 -2.1061 -0.2727
  608SOL     OW 1958   4.119   0.008   2.393 -0.1928  0.4826  0.0782
  608SOL    HW1 1959   4.080   0.081   2.345 -0.3038  0.0728 -0.4596
  608SOL    HW2 1960   4.171   0.049   2.462  0.2872  1.0834 -0.6380
  609SOL     OW 1961   2.224   0.600   0.483 -0.3008 -0.5397  0.6107
  609SOL    HW1 1962   2.193   0.564   0.566  0.6972 -0.7549  0.9052
  609SOL    HW2 1963   2.233   0.694   0.500 -3.7069  0.1093 -0.4031
  610SOL     OW 1964   1.469   4.362   1.748 -0.3747  0.9895 -0.1650
  610SOL    HW1 1965   1.537   4.416   1.790  0.6463  0.1047 -0.6233
  610SOL    HW2 1966   1.517   4.306   1.687 -1.4346 -0.1893  0.0347
  611SOL     OW 1967   3.130   4.860  -0.032 -0.9835 -0.4342  0.2633
  611SOL    HW1 1968   3.129   4.936   0.026  0.6071  0.2219 -0.4901
  611SOL    HW2 1969   3.171   4.791   0.020  1.8797  0.5786 -0.4339
  612SOL     OW 1970   3.609   0.495   4.268 -0.0308 -0.1016  0.1564
  612SOL    HW1 1971   3.524   0.532   4.293  0.6347  0.5742  1.5171
  612SOL    HW2 1972   3.601   0.480   4.174 -2.0335 -1.0587  0.4229
  613SOL     OW 1973   3.263   1.823   1.145  0.3957  0.0232  0.0222
  613SOL    HW1 1974   3.288   1.836   1.236  1.2325 -0.2666 -0.1471
  613SOL    HW2 1975   3.342   1.786   1.104  0.1105  0.3639 -0.8660
  614SOL     OW 1976   1.102   4.905   4.021 -1.1523 -0.3737 -0.6833
  614SOL    HW1 1977   1.086   4.876   3.931  1.0303 -2.3438 -0.5316
  614SOL    HW2 1978   1.136   4.827   4.065  0.2830  1.2166  1.1527
  615SOL     OW 1979   1.748   1.293   0.011 -0.2975 -0.2882  0.2460
  615SOL    HW1 1980   1.761   1.232  -0.061 -1.0109  0.3634 -0.4672
  615SOL    HW2 1981   1.828   1.288   0.062  0.9097  0.3809 -1.4899
  616SOL     OW 1982   3.887   4.784   3.969 -0.2252  0.1029  0.2114
  616SOL    HW1 1983   3.843   4.705   3.999 -1.2102  1.3139  2.1554
  616SOL    HW2 1984   3.969   4.753   3.931  0.2840 -1.7309  2.5945
  617SOL     OW 1985   3.368   0.353   1.527  0.6544  0.3788  0.2300
  617SOL    HW1 1986   3.453   0.360   1.482  0.4313 -1.2450 -0.4942
  617SOL    HW2 1987   3.315   0.422   1.487  1.1726  0.4248 -0.3984
  618SOL     OW 1988   0.758   4.381   4.976  0.1105 -0.0268  0.4172
  618SOL    HW1 1989   0.734   4.472   4.958 -1.1906 -0.3448  0.4960
  618SOL    HW2 1990   0.852   4.385   4.992  0.3916  1.0513 -1.2456
  619SOL     OW 1991   3.047   0.534   4.293 -0.4187  0.3773 -0.0172
  619SOL    HW1 1992   2.981   0.478   4.333 -2.1790  1.2584 -1.5262
  619SOL    HW2 1993   3.013   0.623   4.306  0.9213  0.9168 -0.0678
  620SOL     OW 1994   4.904   2.742   2.520  0.1758 -0.0940 -0.7435
  620SOL    HW1 1995   4.851   2.666   2.495 -1.1876  0.8315 -0.8008
  620SOL    HW2 1996   4.869   2.813   2.466  1.0592  0.6870 -0.3025
  621SOL     OW 1997   3.103   4.596   1.758  0.4611  0.7082 -0.2672
  621SOL    HW1 1998   3.168   4.561   1.698  0.2001  0.8685 -0.6478
  621SOL    HW2 1999   3.063   4.519   1.798 -0.1166  0.5682 -1.1044
  622SOL     OW 2000   0.907   1.905   3.520  0.9626  0.6130  0.3846
  622SOL    HW1 2001   0.826   1.881   3.565  0.3141 -0.8325 -1.4205
  622SOL    HW2 2002   0.976   1.882   3.582  0.1075 -1.3278  0.7076
  623SOL     OW 2003   3.163   2.109   1.792 -0.1419  0.3427  0.0202
  623SOL    HW1 2004   3.085   2.128   1.844 -0.5266  2.6744 -1.2665
  623SOL    HW2 2005   3.132   2.115   1.701  1.5604  1.7276 -0.5209
  624SOL     OW 2006   1.671   3.230   3.959 -0.0079 -0.1546  0.0958
  624SOL    HW1 2007   1.690   3.151   3.908  1.8163  0.3898 -0.1429
  624SOL    HW2 2008   1.743   3.237   4.021 -1.0645  0.3905  1.2971
  625SOL     OW 2009   3.871   3.685   1.191  0.4658 -0.3586  0.7532
  625SOL    HW1 2010   3.787   3.719   1.159  0.4432  0.6340  1.7528
  625SOL    HW2 2011   3.925   3.763   1.201  0.9830 -0.8123  1.5855
  626SOL     OW 2012   0.248   1.517   0.131 -0.2599 -0.0197  0.2975
  626SOL    HW1 2013   0.196   1.454   0.083  0.4261 -0.4434  0.0987
  626SOL    HW2 2014   0.205   1.601   0.115 -0.8366 -0.3507  0.0879
  627SOL     OW 2015   3.911   1.450   0.282  0.1012 -0.5176  0.2591
  627SOL    HW1 2016   3.926   1.515   0.350 -0.7435  1.6449 -1.5064
  627SOL    HW2 2017   3.962   1.374   0.310  3.8674  1.9597  0.8178
  628SOL     OW 2018   3.858   1.945   1.540 -0.2153 -0.1159  0.1846
  628SOL    HW1 2019   3.810   2.027   1.553 -0.4017 -0.3000  0.6869
  628SOL    HW2 2020   3.950   1.971   1.543 -0.2737  0.1128  0.0736
  629SOL     OW 2021   1.565   2.768   2.703  0.3517  0.2666 -0.2532
  629SOL    HW1 2022   1.611   2.838   2.749 -0.8417  1.1604 -0.3598
  629SOL    HW2 2023   1.493   2.813   2.658  0.7633 -0.7463 -1.9963
  630SOL     OW 2024   4.052   3.673   2.169  0.8350  0.1110  0.0178
  630SOL    HW1 2025   3.983   3.618   2.206 -0.1420 -0.4157 -2.3862
  630SOL    HW2 2026   4.131   3.620   2.174  0.6482 -0.0789  0.9890
  631SOL     OW 2027   0.828   2.511   1.365  0.0899  0.2366 -0.5702
  631SOL    HW1 2028   0.818   2.501   1.270  0.8778 -2.8854 -0.4388
  631SOL    HW2 2029   0.739   2.504   1.400 -0.0521 -0.1604 -1.0038
  632SOL     OW 2030   4.899   0.670   1.789  0.2253 -0.5767  0.2231
  632SOL    HW1 2031   4.880   0.662   1.695 -2.0929 -2.0981  0.7497
  632SOL    HW2 2032   4.867   0.757   1.812 -0.8164 -0.8741 -0.0666
  633SOL     OW 2033   3.995   4.068   4.397  0.7528  0.7944 -0.2331
  633SOL    HW1 2034   3.920   4.051   4.454  0.8274  1.8362  0.1813
  633SOL    HW2 2035   4.067   4.018   4.436  0.9803  2.0377  0.9918
  634SOL     OW 2036   3.053   0.783   4.925  0.1817  0.3162 -0.3282
  634SOL    HW1 2037   3.029   0.853   4.986  1.7639  1.0190 -0.4687
  634SOL    HW2 2038   2.982   0.720   4.933 -0.4609  1.1541  1.0424
  635SOL     OW 2039   4.059   1.417   2.522  0.0008  0.4049  0.1279
  635SOL    HW1 2040   4.106   1.480   2.467  0.6120 -0.0036  0.1749
  635SOL    HW2 2041   3.970   1.451   2.526 -0.3196 -0.0521 -1.9236
  636SOL     OW 2042   2.363   4.635   1.061 -0.2741  0.1662  0.6022
  636SOL    HW1 2043   2.318   4.698   1.118  1.2896  1.1763  0.7864
  636SOL    HW2 2044   2.387   4.563   1.119  1.4676  1.2715  1.3302
  637SOL     OW 2045   2.587   4.547   4.763 -0.2866 -0.3456 -0.2648
  637SOL    HW1 2046   2.596   4.517   4.853 -1.3299  0.6886  0.2238
  637SOL    HW2 2047   2.537   4.629   4.770  2.0782  1.3411 -1.5381
  638SOL     OW 2048   4.586   0.394   3.034 -0.1606 -0.8301 -0.5176
  638SOL    HW1 2049   4.560   0.315   2.987 -0.2621 -1.3607  0.4288
  638SOL    HW2 2050   4.661   0.427   2.984  1.1170 -2.5770  0.1641
  639SOL     OW 2051   1.149   4.555   4.391  0.4197  0.2796 -0.4752
  639SOL    HW1 2052   1.243   4.540   4.398  0.3381  0.3223  0.9413
  639SOL    HW2 2053   1.140   4.650   4.383  0.4626  0.3404  0.1711
  640SOL     OW 2054   2.494   4.187   0.440  0.2018  0.1769  0.1628
  640SOL    HW1 2055   2.569   4.127   0.437  0.7498  0.7977  0.9150
  640SOL    HW2 2056   2.417   4.131   0.436  0.6984 -0.6262  1.3929
  641SOL     OW 2057   1.934   3.063   4.744  0.2244 -0.0339 -0.2435
  641SOL    HW1 2058   1.839   3.055   4.737  0.0525  2.3142 -1.4376
  641SOL    HW2 2059   1.966   3.048   4.655  0.6815  2.0438 -0.4657
  642SOL     OW 2060   0.408   2.731   3.734 -0.1509  0.0145 -0.0245
  642SOL    HW1 2061   0.364   2.784   3.667 -0.5823 -1.8793 -1.2995
  642SOL    HW2 2062   0.337   2.693   3.785 -0.1431 -2.6814 -1.8008
  643SOL     OW 2063   4.638   1.890   1.588  0.3404  0.3833 -0.5437
  643SOL    HW1 2064   4.722   1.845   1.582  0.6652  1.1016 -1.6851
  643SOL    HW2 2065   4.573   1.822   1.575  0.8108  0.1294 -1.6436
  644SOL     OW 2066   2.420   4.764   4.844  0.1780 -0.1951  0.1624
  644SOL    HW1 2067   2.491   4.828   4.839  0.1430 -0.0630  1.0732
  644SOL    HW2 2068   2.341   4.816   4.830  0.2530 -0.3253 -0.7502
  645SOL     OW 2069   1.627   0.373   1.327 -0.1243  0.7935 -0.4010
  645SOL    HW1 2070   1.549   0.380   1.271 -2.2500 -0.9035  2.0749
  645SOL    HW2 2071   1.652   0.463   1.346 -3.3283  1.5251  0.9649
  646SOL     OW 2072   0.134   3.920   2.911 -0.0566  0.0682  0.1154
  646SOL    HW1 2073   0.066   3.919   2.978 -0.6575 -1.2255 -0.4798
  646SOL    HW2 2074   0.216   3.917   2.960 -0.4955 -1.3634  0.7990
  647SOL     OW 2075   4.947   0.544   4.921  0.2252 -0.5722  0.6692
  647SOL    HW1 2076   4.972   0.557   4.830  0.5878  0.7419  0.9265
  647SOL    HW2 2077   5.021   0.579   4.971 -0.6003  0.1314  1.4471
  648SOL     OW 2078   1.118   0.390   2.819  0.1013 -0.0699  0.3879
  648SOL    HW1 2079   1.167   0.463   2.858  1.6739 -0.7286 -0.2897
  648SOL    HW2 2080   1.154   0.312   2.861  1.3377 -0.7537 -1.8025
  649SOL     OW 2081   2.084   0.868   3.383 -0.5806 -0.2942  0.3125
  649SOL    HW1 2082   1.997   0.857   3.344  0.1159  0.2989 -1.5744
  649SOL    HW2 2083   2.131   0.789   3.359 -0.2421 -0.0731  0.2403
  650SOL     OW 2084   3.939   1.990   2.581 -0.1601  0.1789  0.4956
  650SOL    HW1 2085   4.019   1.992   2.527 -0.1054  1.6527  0.5759
  650SOL    HW2 2086   3.963   1.937   2.657  1.0974  1.4020  1.0024
  651SOL     OW 2087   0.332   4.575   3.933  0.4879  0.0905 -0.2417
  651SOL    HW1 2088   0.345   4.493   3.886 -1.1276  0.0913 -0.7659
  651SOL    HW2 2089   0.325   4.641   3.864 -0.1201  0.3612  0.0650
  652SOL     OW 2090   1.811   2.639   2.986  0.3879  0.1117  0.2298
  652SOL    HW1 2091   1.847   2.629   2.898 -2.1233 -0.1949 -0.8518
  652SOL    HW2 2092   1.878   2.689   3.034  1.5375  0.8704 -2.0229
  653SOL     OW 2093   2.396   1.325   4.668 -0.0096 -0.0236 -0.4499
  653SOL    HW1 2094   2.477   1.274   4.672 -0.1605 -0.2761 -0.5796
  653SOL    HW2 2095   2.328   1.264   4.695 -0.1376  0.2376 -0.1757
  654SOL     OW 2096   4.357   3.560   1.530 -0.5119  0.7947  0.3400
  654SOL    HW1 2097   4.325   3.531   1.444  0.8715  1.8039 -0.5413
  654SOL    HW2 2098   4.447   3.529   1.534 -0.8470 -0.1230  1.8943
  655SOL     OW 2099   1.571   4.301   2.694  0.5013  0.1641  0.8068
  655SOL    HW1 2100   1.552   4.275   2.784 -1.2554  1.1367  0.7641
  655SOL    HW2 2101   1.638   4.239   2.665 -0.3412 -1.4499  2.1132
  656SOL     OW 2102   2.557   2.889   1.832 -0.9066 -0.4919  0.3519
  656SOL    HW1 2103   2.624   2.833   1.872 -1.8434 -1.5074  0.5476
  656SOL    HW2 2104   2.595   2.915   1.748  0.1917 -0.1208  0.9491
  657SOL     OW 2105   2.443   3.389   2.652  0.1795  0.1726  0.0991
  657SOL    HW1 2106   2.510   3.330   2.685  0.7481  1.0351  0.5479
  657SOL    HW2 2107   2.477   3.421   2.569  0.2458  0.4616  0.2335
  658SOL     OW 2108   2.604   2.005   1.066  0.7438 -0.3116  0.2080
  658SOL    HW1 2109   2.510   2.011   1.086  0.8013 -0.5860  0.5960
  658SOL    HW2 2110   2.623   2.082   1.013  0.1027 -0.7434 -0.6757
  659SOL     OW 2111   1.389   4.616   2.810  0.1826  0.4372  0.1426
  659SOL    HW1 2112   1.319   4.625   2.874 -0.7604 -1.9644 -0.4526
  659SOL    HW2 2113   1.369   4.535   2.764  1.5289  1.4271 -2.3551
  660SOL     OW 2114   1.454   3.235   2.703  0.3108  0.0153 -0.1892
  660SOL    HW1 2115   1.457   3.225   2.608  0.3727 -0.4076 -0.1467
  660SOL    HW2 2116   1.535   3.193   2.734 -1.0314 -2.4698  0.2465
  661SOL     OW 2117   4.086   3.847   3.373 -0.1348  0.1546 -0.0273
  661SOL    HW1 2118   4.130   3.905   3.311 -0.4907  0.8353  0.3403
  661SOL    HW2 2119   3.992   3.864   3.359 -0.2461  2.4261  2.5601
  662SOL     OW 2120   1.994   1.037   2.421  0.2771  0.4203 -0.0945
  662SOL    HW1 2121   1.966   1.128   2.412 -1.9405  0.0124  1.8865
  662SOL    HW2 2122   1.920   0.993   2.462  1.4346 -2.2304 -0.6648
  663SOL     OW 2123   4.895   1.197   1.014  0.0815 -0.1826 -0.1537
  663SOL    HW1 2124   4.970   1.210   0.956  0.4774  1.4506  0.6749
  663SOL    HW2 2125   4.834   1.268   0.992 -1.5838 -1.8615 -1.2830
  664SOL     OW 2126   4.165   2.349   2.699  0.6777 -0.2047  0.3593
  664SOL    HW1 2127   4.121   2.274   2.739  2.0859 -0.7952  0.9111
  664SOL    HW2 2128   4.241   2.311   2.654 -0.2846  0.5665 -2.0611
  665SOL     OW 2129   2.691   1.697   4.371 -0.5911 -0.3450  0.7841
  665SOL    HW1 2130   2.640   1.629   4.328 -1.2125 -0.5250  1.7778
  665SOL    HW2 2131   2.653   1.779   4.340 -2.0940 -0.4696  2.1530
  666SOL     OW 2132   1.054   2.294   4.094  0.2599  0.5754 -0.4482
  666SOL    HW1 2133   1.033   2.387   4.086 -0.0311  0.8821  2.5092
  666SOL    HW2 2134   1.149   2.290   4.088  0.5231  1.5202  1.8943
  667SOL     OW 2135   1.600   1.291   2.704  0.0326  0.3028 -0.1174
  667SOL    HW1 2136   1.613   1.210   2.655 -2.1388 -0.8424  1.0233
  667SOL    HW2 2137   1.661   1.353   2.665  0.5053 -1.3704 -2.2340
  668SOL     OW 2138   2.318   3.570   0.589 -0.5956 -0.4062  0.5987
  668SOL    HW1 2139   2.226   3.553   0.612 -0.9362 -0.2938 -0.6193
  668SOL    HW2 2140   2.316   3.592   0.496  0.7769 -1.2723  0.3268
  669SOL     OW 2141   2.892   3.458   2.762  0.0778  0.8595  0.1045
  669SOL    HW1 2142   2.854   3.493   2.842 -0.3703  0.9252 -0.1297
  669SOL    HW2 2143   2.820   3.462   2.698 -0.0322 -0.5940  0.1063
  670SOL     OW 2144   4.956   2.746   4.937  0.8542 -0.6373 -0.2610
  670SOL    HW1 2145   4.875   2.772   4.893  0.5605 -1.1356 -0.0235
  670SOL    HW2 2146   5.020   2.813   4.912  0.5414 -0.5950 -0.9786
  671SOL     OW 2147   0.565   3.336   1.410  0.1917  0.3134  0.2879
  671SOL    HW1 2148   0.583   3.251   1.450 -0.4214  0.8950  1.8607
  671SOL    HW2 2149   0.473   3.331   1.384  0.6838 -0.1994 -1.4807
  672SOL     OW 2150   4.161   3.693   1.297 -0.3565  0.2457 -0.4032
  672SOL    HW1 2151   4.169   3.628   1.227  2.6610  1.4774 -1.3425
  672SOL    HW2 2152   4.067   3.701   1.312 -0.9395 -2.4392 -2.0065
  673SOL     OW 2153   2.049   1.194   4.407 -0.5326  0.5283 -0.5597
  673SOL    HW1 2154   2.134   1.150   4.416 -1.1923 -0.8454 -0.7630
  673SOL    HW2 2155   1.985   1.125   4.422 -1.7310  2.2154  3.6484
  674SOL     OW 2156   3.949   4.004   4.739 -0.5931 -0.2193 -0.0491
  674SOL    HW1 2157   4.017   3.956   4.692 -1.5820 -0.8381 -0.8775
  674SOL    HW2 2158   3.944   3.960   4.824  0.6290  0.3930  0.3799
  675SOL     OW 2159   0.769   0.898   1.394 -0.1166 -0.0766 -0.0312
  675SOL    HW1 2160   0.736   0.984   1.418 -0.2524  0.0916 -0.8270
  675SOL    HW2 2161   0.729   0.839   1.458 -0.6118  0.3458  0.0531
  676SOL     OW 2162   2.751   1.364   3.062 -0.2184 -0.6060 -0.6258
  676SOL    HW1 2163   2.770   1.389   3.153  0.6348 -0.9244 -0.7059
  676SOL    HW2 2164   2.807   1.421   3.010  2.5730 -3.2164 -0.7857
  677SOL     OW 2165   0.338   2.357   4.755 -0.0868 -0.7717 -0.3787
  677SOL    HW1 2166   0.326   2.277   4.704  0.2278 -1.2132  0.2319
  677SOL    HW2 2167   0.251   2.397   4.757 -0.5370 -1.7442  0.3719
  678SOL     OW 2168   4.449   2.052   3.078  0.0551  0.3501 -0.1656
  678SOL    HW1 2169   4.524   2.051   3.138  0.0097  0.4811 -0.1068
  678SOL    HW2 2170   4.463   1.976   3.022 -0.3140 -0.2250  0.5101
  679SOL     OW 2171   3.176   0.599   2.524 -0.0724  0.3704 -0.0758
  679SOL    HW1 2172   3.150   0.628   2.611  1.1497  1.6383 -0.1082
  679SOL    HW2 2173   3.098   0.612   2.469 -1.0534 -1.0383  0.9269
  680SOL     OW 2174   1.248   0.148   3.643  0.5157 -0.7142  0.0802
  680SOL    HW1 2175   1.176   0.085   3.635 -0.8234  0.9703 -4.4024
  680SOL    HW2 2176   1.320   0.108   3.595  0.4703  0.0214 -0.6400
  681SOL     OW 2177   2.917   2.758   3.621  0.1006  0.1158  0.2049
  681SOL    HW1 2178   2.899   2.792   3.533 -0.0460 -2.4563 -0.8489
  681SOL    HW2 2179   2.977   2.684   3.606  1.6927  0.8487  2.4897
  682SOL     OW 2180   3.387   1.178   1.617  0.0697  0.0461 -0.2706
  682SOL    HW1 2181   3.482   1.189   1.607  0.2247 -0.9082  0.0640
  682SOL    HW2 2182   3.372   1.194   1.710 -0.0821  0.0863 -0.3031
  683SOL     OW 2183   0.448   1.963   2.602  0.2817  0.1385  0.7391
  683SOL    HW1 2184   0.410   1.879   2.579  0.2681  0.4635 -0.4580
  683SOL    HW2 2185   0.534   1.963   2.560  0.2580  0.7382  0.6799
  684SOL     OW 2186   4.373   3.025   0.147  0.0854 -0.8978  0.5234
  684SOL    HW1 2187   4.442   2.978   0.193  0.3653 -0.4721  0.5343
  684SOL    HW2 2188   4.362   3.106   0.195 -0.0554 -0.7294  0.2100
  685SOL     OW 2189   3.426   2.855   4.080 -0.1142 -0.6317  0.0008
  685SOL    HW1 2190   3.511   2.877   4.117 -0.5140  0.5790  0.2396
  685SOL    HW2 2191   3.404   2.927   4.022 -1.5316 -0.2745  0.9121
  686SOL     OW 2192   3.999   2.600   4.685 -0.9197 -0.2294  0.3158
  686SOL    HW1 2193   4.008   2.506   4.702  3.5182 -0.6072 -2.4946
  686SOL    HW2 2194   3.988   2.606   4.590 -0.3793  2.1032  0.3457
  687SOL     OW 2195   0.643   3.560   2.404 -0.7960  0.5271  0.9209
  687SOL    HW1 2196   0.724   3.541   2.451 -0.0328  0.8915 -0.2101
  687SOL    HW2 2197   0.638   3.494   2.335  0.1219  2.2319 -0.8842
  688SOL     OW 2198   4.262   2.957   3.620 -0.2228 -0.1380  0.0220
  688SOL    HW1 2199   4.182   2.905   3.608  0.5694 -0.8599 -3.0098
  688SOL    HW2 2200   4.233   3.047   3.603 -0.4911 -0.3502 -0.7027
  689SOL     OW 2201   0.070   4.908   0.113  0.3725 -0.6115  0.7210
  689SOL    HW1 2202   0.093   4.825   0.156 -0.0209 -0.8377  0.4922
  689SOL    HW2 2203  -0.014   4.933   0.152  1.0706  0.3148  1.6937
  690SOL     OW 2204   2.949   0.948   2.311 -0.4426 -0.4020 -0.1715
  690SOL    HW1 2205   2.855   0.936   2.302 -0.2812 -2.2631  0.3005
  690SOL    HW2 2206   2.964   0.954   2.405  0.1462 -2.9261 -0.0229
  691SOL     OW 2207   3.542   4.592   0.500  0.4857 -0.0612  0.4254
  691SOL    HW1 2208   3.549   4.605   0.595 -0.4223 -0.6256  0.5806
  691SOL    HW2 2209   3.448   4.599   0.482  0.8215  2.7764 -0.8607
  692SOL     OW 2210   2.937   3.747   0.737  0.4440  0.5839  0.7965
  692SOL    HW1 2211   2.893   3.664   0.722 -1.7129  1.9066 -0.6749
  692SOL    HW2 2212   2.896   3.808   0.676  1.0052  3.0668  2.7274
  693SOL     OW 2213   4.371   3.334   0.671  0.5597  0.0093  0.7424
  693SOL    HW1 2214   4.386   3.345   0.577  1.8501 -1.1360  0.7989
  693SOL    HW2 2215   4.428   3.262   0.697  0.1462  0.2354  2.3961
  694SOL     OW 2216   0.251   0.379   4.740  0.2462 -0.4452 -0.1716
  694SOL    HW1 2217   0.220   0.310   4.681  0.4233 -0.8241  0.1752
  694SOL    HW2 2218   0.334   0.346   4.773  1.0556  0.5775 -1.1160
  695SOL     OW 2219   2.897   4.897   3.566  0.4862 -0.3547 -0.4893
  695SOL    HW1 2220   2.986   4.931   3.577 -0.0289  0.2672  2.8113
  695SOL    HW2 2221   2.901   4.809   3.603 -0.6901  0.5496  2.0248
  696SOL     OW 2222   4.186   0.479   2.293 -0.4180 -0.6471 -0.4722
  696SOL    HW1 2223   4.274   0.499   2.262 -0.6146 -0.6229 -1.0252
  696SOL    HW2 2224   4.180   0.520   2.379 -0.4222  0.6988 -1.0916
  697SOL     OW 2225   3.787   4.052   1.444  0.7761  0.2161 -0.4209
  697SOL    HW1 2226   3.745   4.129   1.482 -0.0921 -0.2301 -0.4632
  697SOL    HW2 2227   3.732   3.978   1.471  1.6747 -0.4107 -0.2678
  698SOL     OW 2228   0.470   0.097   4.029  0.1190  0.4376 -0.3988
  698SOL    HW1 2229   0.544   0.120   3.973  0.9635 -2.1389 -0.4748
  698SOL    HW2 2230   0.459   0.002   4.017 -2.6898  0.5910  0.2399
  699SOL     OW 2231   4.577   2.469   0.265  0.4738 -0.5588 -0.6927
  699SOL    HW1 2232   4.491   2.510   0.254  0.0950 -1.3125 -0.5581
  699SOL    HW2 2233   4.586   2.410   0.190  0.5828 -0.9849 -0.3474
  700SOL     OW 2234   0.639   1.133   3.086 -0.6131 -0.1766 -0.5078
  700SOL    HW1 2235   0.644   1.058   3.027  0.8481 -0.6512  0.1613
  700SOL    HW2 2236   0.728   1.168   3.087 -0.7601  0.2147  0.9032
  701SOL     OW 2237   0.603   2.870   0.977 -0.0066 -0.1144 -0.5607
  701SOL    HW1 2238   0.607   2.846   0.885  0.1713 -1.3187 -0.2651
  701SOL    HW2 2239   0.608   2.786   1.024  3.9848  0.6208  0.6660
  702SOL     OW 2240   0.135   1.872   4.431 -0.2570 -0.3533  0.0026
  702SOL    HW1 2241   0.172   1.944   4.482  0.1240 -1.2113  0.9894
  702SOL    HW2 2242   0.143   1.899   4.340  2.5134 -0.3211  0.1762
  703SOL     OW 2243   0.152   3.923   4.980 -0.0562  0.4247 -0.5434
  703SOL    HW1 2244   0.079   3.948   5.036 -1.1603  0.2927 -1.8477
  703SOL    HW2 2245   0.131   3.963   4.895  2.3660  1.9870 -0.4872
  704SOL     OW 2246   5.031   1.960   2.810  0.3131  0.4195 -0.5059
  704SOL    HW1 2247   4.979   2.027   2.766 -2.0461 -1.1128 -0.2425
  704SOL    HW2 2248   4.969   1.889   2.829  2.4776 -1.4895  0.0127
  705SOL     OW 2249   0.219   3.536   0.912 -0.6124  0.0030  0.1844
  705SOL    HW1 2250   0.125   3.555   0.916 -0.6270  0.1282 -0.5779
  705SOL    HW2 2251   0.252   3.560   0.999 -1.1288  0.8525  0.1596
  706SOL     OW 2252   2.150   3.241   2.259  0.1245  0.5554  0.4188
  706SOL    HW1 2253   2.150   3.245   2.355 -0.3921  3.0836  0.3869
  706SOL    HW2 2254   2.236   3.277   2.235  1.3607 -2.4935 -0.1080
  707SOL     OW 2255   2.741   0.460   3.642  0.1042  0.1859  0.1304
  707SOL    HW1 2256   2.794   0.412   3.707  1.0024  0.0311 -0.6848
  707SOL    HW2 2257   2.685   0.393   3.603  0.8481 -0.0777 -0.5051
  708SOL     OW 2258   1.007   2.733   3.802 -0.8116 -0.0736 -0.0454
  708SOL    HW1 2259   0.960   2.723   3.719 -0.3310 -2.1570 -0.1220
  708SOL    HW2 2260   1.026   2.644   3.830  1.8245  0.6256  0.7075
  709SOL     OW 2261   2.922   4.176   4.614  0.2864 -0.0410 -0.2006
  709SOL    HW1 2262   2.877   4.232   4.677  0.0976  0.6925 -0.9647
  709SOL    HW2 2263   3.013   4.204   4.617  0.3353 -0.2209 -0.0243
  710SOL     OW 2264   4.502   2.706   2.806 -0.0925 -0.0143  0.0709
  710SOL    HW1 2265   4.434   2.709   2.737 -1.3411 -0.2796  1.2435
  710SOL    HW2 2266   4.456   2.732   2.885  1.3941  0.5537  0.7805
  711SOL     OW 2267   1.464   4.508   2.515 -0.7735  0.1548 -0.0974
  711SOL    HW1 2268   1.514   4.496   2.435  0.4017 -0.9854  0.7550
  711SOL    HW2 2269   1.490   4.434   2.571 -2.4927  0.2152  0.8638
  712SOL     OW 2270   2.522   2.470   3.449 -0.3634  0.2568 -0.1778
  712SOL    HW1 2271   2.608   2.486   3.409 -0.7063 -0.7340 -1.3861
  712SOL    HW2 2272   2.538   2.476   3.543  1.0180  0.1500 -0.3768
  713SOL     OW 2273   1.198   1.114   0.331  0.1530 -0.6800  0.0225
  713SOL    HW1 2274   1.270   1.142   0.273  1.3086 -1.5810  0.9875
  713SOL    HW2 2275   1.128   1.091   0.271  0.3706  0.9201 -0.9302
  714SOL     OW 2276   3.584   2.813   3.371 -0.2540 -0.0670  0.1732
  714SOL    HW1 2277   3.609   2.722   3.353  1.0709  0.4026 -0.5423
  714SOL    HW2 2278   3.506   2.807   3.425 -0.2318 -1.6332  0.0630
  715SOL     OW 2279   0.231   2.458   1.703  0.6900  0.1595 -0.4502
  715SOL    HW1 2280   0.241   2.536   1.759 -0.4727 -0.7253  1.0547
  715SOL    HW2 2281   0.173   2.486   1.633  1.4079  1.0232 -0.7306
  716SOL     OW 2282   1.738   4.233   0.324  0.2223  0.5204  1.1916
  716SOL    HW1 2283   1.656   4.183   0.317  0.1352  0.5440  1.9662
  716SOL    HW2 2284   1.795   4.195   0.257 -0.0778 -0.1656  1.3185
  717SOL     OW 2285   4.315   2.385   2.327 -0.5883  0.1786 -0.6137
  717SOL    HW1 2286   4.279   2.316   2.272 -1.3496  0.1973 -0.1554
  717SOL    HW2 2287   4.345   2.340   2.406  0.1752  0.1977 -0.8813
  718SOL     OW 2288   0.114   2.284   4.376  0.0095 -0.6090 -0.2880
  718SOL    HW1 2289   0.073   2.264   4.291 -1.2182 -1.0824  0.3863
  718SOL    HW2 2290   0.041   2.305   4.433  0.9663  1.7244  0.1673
  719SOL     OW 2291   4.987   0.278   4.941  0.2909  0.8158 -0.1997
  719SOL    HW1 2292   5.059   0.278   5.004  2.0962  2.9016 -2.0938
  719SOL    HW2 2293   4.939   0.359   4.960  0.0340  0.7713 -0.6496
  720SOL     OW 2294   2.523   3.730   1.267 -0.2765 -0.0968 -0.1073
  720SOL    HW1 2295   2.613   3.721   1.298 -1.0004  0.9765  2.5946
  720SOL    HW2 2296   2.523   3.809   1.213  0.7197 -1.1493 -1.7334
  721SOL     OW 2297   2.481   1.776   4.017  0.2030  0.2834  0.3262
  721SOL    HW1 2298   2.562   1.763   4.065 -0.0410 -3.4787 -0.0167
  721SOL    HW2 2299   2.508   1.822   3.937  2.2230 -1.7285 -0.2398
  722SOL     OW 2300   1.107   0.060   2.141 -0.5406  0.6323 -0.1885
  722SOL    HW1 2301   1.145  -0.028   2.132  1.6416  1.6376 -1.8396
  722SOL    HW2 2302   1.015   0.048   2.119 -0.9577 -1.6475  2.2752
  723SOL     OW 2303   0.843   3.367   3.516  0.3053 -0.1273  0.2573
  723SOL    HW1 2304   0.858   3.275   3.540 -2.2456 -0.2161  1.8878
  723SOL    HW2 2305   0.773   3.363   3.450  0.6580  0.6261 -0.1735
  724SOL     OW 2306   4.599   0.101   3.158  0.2933 -0.4857 -0.0148
  724SOL    HW1 2307   4.571   0.122   3.069  0.1146 -1.1042 -0.1123
  724SOL    HW2 2308   4.686   0.140   3.165  0.2011 -0.2033 -0.3685
  725SOL     OW 2309   4.327   4.933   0.088 -0.2941 -0.9848 -0.2096
  725SOL    HW1 2310   4.265   4.994   0.126 -0.3143 -1.5364  0.6651
  725SOL    HW2 2311   4.336   4.863   0.153  0.1811 -1.6126 -0.9236
  726SOL     OW 2312   4.493   1.066   0.080 -0.0993 -0.1723 -0.2102
  726SOL    HW1 2313   4.548   1.056   0.003 -1.5696 -1.7860 -1.0987
  726SOL    HW2 2314   4.455   1.154   0.071 -0.2991 -0.3687 -1.3450
  727SOL     OW 2315   4.661   1.795   4.958  0.2622  0.0152  0.6953
  727SOL    HW1 2316   4.663   1.795   4.862  0.5630  1.0509  0.6965
  727SOL    HW2 2317   4.600   1.865   4.981 -1.0739 -1.2846  1.2613
  728SOL     OW 2318   4.518   2.905   1.518 -0.1050  0.3186 -0.2700
  728SOL    HW1 2319   4.431   2.926   1.553 -0.9761 -0.2159 -1.9949
  728SOL    HW2 2320   4.504   2.825   1.467  1.0933  1.0166 -1.7431
  729SOL     OW 2321   4.905   3.625   4.359 -0.0373  0.2718 -0.4048
  729SOL    HW1 2322   4.950   3.662   4.283 -0.0184 -0.8050 -0.9444
  729SOL    HW2 2323   4.821   3.596   4.325  0.1712 -0.6905 -0.1439
  730SOL     OW 2324   4.421   3.597   2.917  0.1916  0.3682  0.2207
  730SOL    HW1 2325   4.354   3.578   2.982  0.2091 -0.2267  0.0693
  730SOL    HW2 2326   4.375   3.643   2.847 -0.2455 -0.7560 -0.2647
  731SOL     OW 2327   1.691   2.922   2.358  0.4459  0.4545  0.3222
  731SOL    HW1 2328   1.759   2.976   2.398  1.3910  0.7940 -1.6149
  731SOL    HW2 2329   1.615   2.980   2.351  0.9619  1.0692 -0.3273
  732SOL     OW 2330   3.463   1.025   4.880 -0.1757 -0.3318 -0.3679
  732SOL    HW1 2331   3.523   1.056   4.948  0.1408 -1.1989 -0.2422
  732SOL    HW2 2332   3.400   0.971   4.926  0.5288 -1.6082 -0.8556
  733SOL     OW 2333   2.119   4.985   0.038 -0.1677  0.0426  0.1459
  733SOL    HW1 2334   2.049   5.019  -0.019 -0.1662 -0.6631 -0.2843
  733SOL    HW2 2335   2.116   4.891   0.025  0.1463 -0.0810  0.9740
  734SOL     OW 2336   3.763   3.375   0.017  0.7502 -0.0416  1.0806
  734SOL    HW1 2337   3.778   3.456   0.067 -0.7902 -0.4061  2.1974
  734SOL    HW2 2338   3.687   3.335   0.059  0.2685 -1.0862 -0.7038
  735SOL     OW 2339   0.343   3.661   4.479  0.1459  0.1082 -0.5644
  735SOL    HW1 2340   0.422   3.609   4.486  1.6421  2.4853  2.2145
  735SOL    HW2 2341   0.308   3.641   4.392  3.8853 -0.8976 -1.9924
  736SOL     OW 2342   2.391   1.745   4.846  0.3382  0.2174 -0.6295
  736SOL    HW1 2343   2.446   1.820   4.868  0.3062 -0.1479  0.8092
  736SOL    HW2 2344   2.426   1.674   4.899 -0.2952 -0.5267 -1.1866
  737SOL     OW 2345   3.774   3.802   4.935 -0.1739  0.2459 -0.2051
  737SOL    HW1 2346   3.848   3.794   4.995  0.1133 -0.9367 -0.6743
  737SOL    HW2 2347   3.807   3.767   4.852 -1.9276 -2.7044  0.1849
  738SOL     OW 2348   0.668   1.577   0.664  0.0779  0.4997  0.4882
  738SOL    HW1 2349   0.601   1.531   0.614 -0.7835  3.1873 -1.0216
  738SOL    HW2 2350   0.720   1.507   0.704 -0.4034 -1.8133 -2.5347
  739SOL     OW 2351   2.671   0.452   2.890 -0.6636 -0.3330 -0.1134
  739SOL    HW1 2352   2.642   0.544   2.890  2.9766  1.0887  2.9861
  739SOL    HW2 2353   2.604   0.406   2.940 -2.2939  0.6487 -1.2605
  740SOL     OW 2354   0.124   1.755   3.462 -0.2230  0.1927 -0.0791
  740SOL    HW1 2355   0.150   1.844   3.439 -1.1131  0.7997  1.1253
  740SOL    HW2 2356   0.189   1.699   3.420  2.7493  1.5557  2.2692
  741SOL     OW 2357   2.847   2.516   2.050  0.0413 -0.6278  0.3371
  741SOL    HW1 2358   2.909   2.546   1.984 -1.2422  0.4121 -0.4310
  741SOL    HW2 2359   2.825   2.426   2.024  0.8839 -0.8641  0.3944
  742SOL     OW 2360   3.087   4.179   1.847  0.2034 -0.1749  0.1357
  742SOL    HW1 2361   3.013   4.156   1.791  1.1786 -0.4024 -1.0892
  742SOL    HW2 2362   3.047   4.197   1.933 -1.4738  1.4674 -0.9228
  743SOL     OW 2363   4.596   2.258   3.443  0.0491 -0.8110 -0.3000
  743SOL    HW1 2364   4.561   2.346   3.456 -1.6804 -1.5160  0.0620
  743SOL    HW2 2365   4.621   2.229   3.531  1.1699 -0.5062 -0.4907
  744SOL     OW 2366   1.086   4.800   0.580  0.4430 -0.1450  0.9452
  744SOL    HW1 2367   1.050   4.711   0.582 -0.9451  0.2916 -1.0752
  744SOL    HW2 2368   1.019   4.854   0.622 -0.6104  0.4320 -1.3046
  745SOL     OW 2369   1.454   4.503   1.035  0.3939 -0.5506 -0.1046
  745SOL    HW1 2370   1.496   4.573   1.086 -1.3260  1.6168 -1.4866
  745SOL    HW2 2371   1.416   4.445   1.101  1.6945 -0.0881  1.0907
  746SOL     OW 2372   1.470   1.780   3.250  0.0404 -0.0007  0.4029
  746SOL    HW1 2373   1.551   1.800   3.298 -0.1226 -1.0409  1.1567
  746SOL    HW2 2374   1.490   1.698   3.204 -0.5922 -0.2687  0.6048
  747SOL     OW 2375   1.833   1.852   4.642 -0.3498  0.0206  0.3141
  747SOL    HW1 2376   1.872   1.886   4.722  0.1654 -0.9640  0.4908
  747SOL    HW2 2377   1.896   1.788   4.609 -1.5537 -1.2080  0.3136
  748SOL     OW 2378   2.301   3.360   0.913 -0.1238 -0.7314 -0.3927
  748SOL    HW1 2379   2.294   3.398   1.000 -1.4206 -2.1068  0.1571
  748SOL    HW2 2380   2.322   3.434   0.856 -1.6125  0.6395  0.7351
  749SOL     OW 2381   2.813   0.840   4.672 -0.1064 -0.3426 -0.1648
  749SOL    HW1 2382   2.889   0.783   4.684 -1.7826 -2.9278 -0.8933
  749SOL    HW2 2383   2.815   0.865   4.580 -0.2130 -0.5631 -0.2288
  750SOL     OW 2384   4.213   0.147   3.116 -0.6892  0.0917 -0.0729
  750SOL    HW1 2385   4.204   0.242   3.109 -0.3965  0.0372 -1.4960
  750SOL    HW2 2386   4.268   0.133   3.193 -0.2576  1.1010 -0.1837
  751SOL     OW 2387   3.580   4.102   3.473 -0.0551  0.4550 -0.0681
  751SOL    HW1 2388   3.510   4.038   3.478 -0.6913  1.0361 -1.3375
  751SOL    HW2 2389   3.638   4.079   3.546 -0.4282 -1.3474 -0.2948
  752SOL     OW 2390   0.400   1.130   0.486  0.4201  0.1184  0.1009
  752SOL    HW1 2391   0.405   1.088   0.400 -0.3252 -1.2437  0.6933
  752SOL    HW2 2392   0.471   1.090   0.536  0.7910  0.8400  0.1702
  753SOL     OW 2393   4.650   2.242   2.463 -0.2200  0.4586  0.1355
  753SOL    HW1 2394   4.665   2.203   2.376 -0.4898  3.4402 -1.3790
  753SOL    HW2 2395   4.570   2.201   2.494  1.5984 -3.1314  0.6095
  754SOL     OW 2396   1.416   4.291   0.142  0.1606  0.3736 -0.1587
  754SOL    HW1 2397   1.496   4.319   0.186 -0.4757  0.3428  1.0663
  754SOL    HW2 2398   1.346   4.339   0.187 -0.6917 -1.0955  0.1595
  755SOL     OW 2399   3.806   0.892   0.804  0.1006  0.1554  0.2135
  755SOL    HW1 2400   3.818   0.805   0.843  0.8521  0.7467  1.3820
  755SOL    HW2 2401   3.794   0.875   0.711  1.8759 -1.1101  0.1603
  756SOL     OW 2402   2.363   4.262   2.910  0.3451  0.0428  0.2061
  756SOL    HW1 2403   2.348   4.259   2.815 -2.0469 -2.2080  0.5368
  756SOL    HW2 2404   2.449   4.223   2.922  1.1745  1.3774 -1.0757
  757SOL     OW 2405   3.063   2.553   2.487  0.0426 -0.2475 -0.1230
  757SOL    HW1 2406   3.131   2.543   2.554 -1.1131  0.5377  1.2035
  757SOL    HW2 2407   3.072   2.644   2.457 -0.5844 -0.0648  0.2406
  758SOL     OW 2408   2.406   0.139   1.754  0.1837  0.2194  0.0835
  758SOL    HW1 2409   2.487   0.179   1.722 -0.3712 -0.2267 -2.0283
  758SOL    HW2 2410   2.425   0.046   1.758  0.1720  0.2451  0.9074
  759SOL     OW 2411   4.695   1.115   4.084 -0.0525 -0.4348  0.1827
  759SOL    HW1 2412   4.785   1.124   4.115  0.3207 -0.7271 -0.7736
  759SOL    HW2 2413   4.699   1.045   4.018 -0.8598 -0.0176 -0.3263
  760SOL     OW 2414   2.461   4.455   1.289  0.9099  0.1105 -0.1298
  760SOL    HW1 2415   2.546   4.413   1.305  1.2751  1.1964  1.0048
  760SOL    HW2 2416   2.465   4.535   1.341 -0.4766  0.6215 -0.7766
  761SOL     OW 2417   3.116   3.299   2.656 -0.3505  0.2382  0.2834
  761SOL    HW1 2418   3.151   3.284   2.744  0.6520  1.1481  0.0651
  761SOL    HW2 2419   3.068   3.382   2.663  0.1455  0.5681 -0.1256
  762SOL     OW 2420   3.377   0.072   1.178  0.0063  0.0992 -0.8285
  762SOL    HW1 2421   3.406   0.032   1.260  1.0103  2.3433 -0.0019
  762SOL    HW2 2422   3.282   0.084   1.189 -0.1391 -1.0607 -0.6904
  763SOL     OW 2423   4.196   3.762   4.280  0.6441  0.3083 -0.3385
  763SOL    HW1 2424   4.213   3.827   4.212  0.5995 -0.8855 -1.5283
  763SOL    HW2 2425   4.178   3.813   4.358  1.7174  1.7115 -0.9682
  764SOL     OW 2426   1.974   1.471   4.793  0.6676 -0.2230  0.2066
  764SOL    HW1 2427   1.881   1.489   4.808  0.6127  1.4379 -1.6981
  764SOL    HW2 2428   1.975   1.380   4.762 -0.3719 -0.1841  0.0036
  765SOL     OW 2429   1.191   3.965   3.082 -0.3645 -0.0330  0.2095
  765SOL    HW1 2430   1.128   3.906   3.123 -1.4532  2.1376  1.8424
  765SOL    HW2 2431   1.163   4.053   3.108  1.2521  1.2513 -2.0008
  766SOL     OW 2432   4.248   2.631   1.830  0.1744 -0.4809  0.1258
  766SOL    HW1 2433   4.320   2.663   1.884  0.0339 -0.3544  0.2420
  766SOL    HW2 2434   4.282   2.552   1.788  1.2849  0.9905 -1.8892
  767SOL     OW 2435   2.453   2.206   3.244  0.2834  0.3645  0.1317
  767SOL    HW1 2436   2.382   2.192   3.181  0.7775  2.7460 -1.0831
  767SOL    HW2 2437   2.435   2.144   3.314  0.7655 -3.8743 -3.0751
  768SOL     OW 2438   1.344   1.226   4.168  0.0257  0.0627  0.6549
  768SOL    HW1 2439   1.256   1.262   4.184 -0.6199 -1.0378 -0.2833
  768SOL    HW2 2440   1.386   1.289   4.109 -0.1819  0.5158  0.9839
  769SOL     OW 2441   0.843   0.263   0.553 -0.0904  0.4984  0.1618
  769SOL    HW1 2442   0.918   0.313   0.517  2.3318 -2.2756  0.9776
  769SOL    HW2 2443   0.822   0.308   0.635  1.0451  1.0516  0.1811
  770SOL     OW 2444   2.679   0.588   0.541  0.6679  0.2138  0.1027
  770SOL    HW1 2445   2.643   0.645   0.473 -0.1533  0.3759  0.6579
  770SOL    HW2 2446   2.693   0.646   0.616 -0.3137 -0.3155  0.7237
  771SOL     OW 2447   4.077   3.790   3.039 -0.7439  0.1087  0.4177
  771SOL    HW1 2448   3.988   3.814   3.011 -0.8233  0.4897  0.9925
  771SOL    HW2 2449   4.113   3.871   3.075 -0.2225 -0.0898  0.3420
  772SOL     OW 2450   0.939   4.192   2.302 -0.0628  0.1592  0.1664
  772SOL    HW1 2451   1.022   4.152   2.277 -1.3758 -1.5067 -1.8488
  772SOL    HW2 2452   0.946   4.283   2.272  0.5650 -0.3212 -1.2319
  773SOL     OW 2453   0.147   3.015   3.821  0.4572 -0.2628  0.5463
  773SOL    HW1 2454   0.218   3.062   3.778  0.8405 -2.0281 -0.8420
  773SOL    HW2 2455   0.174   3.009   3.913  0.0097  2.8532  1.0104
  774SOL     OW 2456   0.309   3.299   1.343 -0.2578 -0.0273 -0.0066
  774SOL    HW1 2457   0.270   3.341   1.419 -1.6253 -2.2556  0.6128
  774SOL    HW2 2458   0.251   3.321   1.271 -0.5934 -0.2977  0.1802
  775SOL     OW 2459   0.804   3.273   0.759  0.1898  0.2829 -0.5655
  775SOL    HW1 2460   0.779   3.182   0.745 -1.5071  0.4561  0.9482
  775SOL    HW2 2461   0.816   3.309   0.672  1.8645 -1.5927 -1.2029
  776SOL     OW 2462   0.867   2.772   3.218 -0.6525  0.1480 -0.3823
  776SOL    HW1 2463   0.869   2.819   3.302 -1.9737 -0.6459  0.1257
  776SOL    HW2 2464   0.890   2.682   3.240 -1.5385 -0.1852 -0.7687
  777SOL     OW 2465   2.251   1.844   1.606 -0.3776 -1.0866 -0.3376
  777SOL    HW1 2466   2.180   1.828   1.669 -0.8103 -0.3119 -0.6104
  777SOL    HW2 2467   2.233   1.784   1.534 -1.1975 -0.3923 -0.7377
  778SOL     OW 2468   2.854   4.799   2.667 -0.0749 -0.2662 -0.1698
  778SOL    HW1 2469   2.870   4.725   2.607  0.4742  0.3028 -0.7427
  778SOL    HW2 2470   2.872   4.877   2.614 -1.0417  0.2991  0.3089
  779SOL     OW 2471   0.906   4.022   3.901  0.4397  0.0098  0.2950
  779SOL    HW1 2472   0.975   4.078   3.867 -0.9915  0.0584 -2.8264
  779SOL    HW2 2473   0.944   3.934   3.899  1.1359  0.2793  0.8576
  780SOL     OW 2474   3.329   1.507   3.220 -0.0165  0.3485  0.5084
  780SOL    HW1 2475   3.363   1.450   3.289 -0.0953  0.5406  0.7084
  780SOL    HW2 2476   3.404   1.527   3.166 -0.3236 -1.4502 -0.6554
  781SOL     OW 2477   3.892   4.345   2.250  0.2599  0.0542  0.1892
  781SOL    HW1 2478   3.918   4.256   2.275  2.0610  0.2708 -0.7638
  781SOL    HW2 2479   3.955   4.370   2.183  0.6210  2.5633  1.3724
  782SOL     OW 2480   3.291   4.724   0.442 -0.1806  0.1393 -1.0369
  782SOL    HW1 2481   3.316   4.815   0.451 -1.2491  0.3492  0.0147
  782SOL    HW2 2482   3.290   4.708   0.347  2.3182  0.5255 -1.1788
  783SOL     OW 2483   2.929   2.240   4.991 -0.1274 -0.1650 -0.4204
  783SOL    HW1 2484   2.948   2.311   4.930  1.2202 -2.6168 -3.0986
  783SOL    HW2 2485   3.008   2.231   5.044 -0.9913  1.4199  1.2618
  784SOL     OW 2486   3.879   0.406   4.016  0.1740  0.1977  0.2538
  784SOL    HW1 2487   3.876   0.428   3.923  0.3940 -0.8718 -0.0263
  784SOL    HW2 2488   3.807   0.344   4.028  1.5382 -1.4430  0.2788
  785SOL     OW 2489   2.640   4.708   1.301 -0.0605 -0.1713 -0.6729
  785SOL    HW1 2490   2.728   4.712   1.265  0.5239  1.4909  0.7860
  785SOL    HW2 2491   2.653   4.688   1.394 -1.1180  1.2743 -0.1839
  786SOL     OW 2492   0.290   3.119   0.471  0.3375 -0.2542  0.7359
  786SOL    HW1 2493   0.252   3.061   0.404  0.8001  0.3859 -0.0878
  786SOL    HW2 2494   0.221   3.182   0.489  0.1369 -0.5496  1.0286
  787SOL     OW 2495   0.020   3.630   4.913 -0.0190  0.6773 -0.1479
  787SOL    HW1 2496  -0.008   3.629   4.821 -0.6463 -0.5947  0.0346
  787SOL    HW2 2497   0.074   3.708   4.921 -0.4252  1.1162 -1.4645
  788SOL     OW 2498   3.238   1.724   5.010  0.3847 -0.2452  0.2940
  788SOL    HW1 2499   3.207   1.814   5.019 -2.3589 -1.1436  0.7366
  788SOL    HW2 2500   3.313   1.731   4.951 -1.2968  2.0740 -1.8375
  789SOL     OW 2501   2.360   2.885   1.009  0.7712  0.7798  0.6323
  789SOL    HW1 2502   2.271   2.852   1.020  1.2201 -0.7148  0.0583
  789SOL    HW2 2503   2.351   2.961   0.952 -0.0352 -0.0830 -0.4289
  790SOL     OW 2504   2.800   4.793   3.914  0.1713  0.0081  0.3065
  790SOL    HW1 2505   2.881   4.802   3.964  1.1645 -0.1563 -1.2234
  790SOL    HW2 2506   2.825   4.748   3.834 -1.5249 -0.4371 -0.0249
  791SOL     OW 2507   3.765   0.821   0.548  0.2989  0.2913 -0.1877
  791SOL    HW1 2508   3.696   0.758   0.572 -0.5134  1.7147  1.4294
  791SOL    HW2 2509   3.722   0.883   0.490  0.4791  0.6395  0.0491
  792SOL     OW 2510   2.517   2.752   1.272  0.2798  0.2463 -0.1128
  792SOL    HW1 2511   2.445   2.701   1.307  0.0710 -0.4728 -1.5242
  792SOL    HW2 2512   2.483   2.789   1.190  1.2639  0.5187 -0.4126
  793SOL     OW 2513   0.186   0.074   2.729  0.1553 -0.5335  0.7181
  793SOL    HW1 2514   0.135   0.007   2.773  1.5628 -1.1316  1.5095
  793SOL    HW2 2515   0.134   0.153   2.736 -1.8087 -1.6181 -0.7235
  794SOL     OW 2516   2.843   4.282   1.709 -0.6022 -0.2687 -0.2986
  794SOL    HW1 2517   2.778   4.216   1.684 -0.4524 -0.1272 -1.0794
  794SOL    HW2 2518   2.888   4.303   1.628 -3.1427  3.5705 -1.0065
  795SOL     OW 2519   1.282   2.503   2.249 -0.1360 -0.7937 -0.5331
  795SOL    HW1 2520   1.272   2.556   2.328 -1.4904 -0.7833 -0.6814
  795SOL    HW2 2521   1.282   2.567   2.177 -0.9109 -0.9221 -0.6562
  796SOL     OW 2522   3.294   1.145   3.617 -0.2038  0.3543  0.0178
  796SOL    HW1 2523   3.347   1.077   3.659 -0.1414 -0.0582 -0.7128
  796SOL    HW2 2524   3.269   1.108   3.533 -1.1540  0.7828  0.0939
  797SOL     OW 2525   2.493   3.791   4.092  0.9542  0.2369 -0.2628
  797SOL    HW1 2526   2.460   3.785   4.181 -1.1568  2.6482 -0.7635
  797SOL    HW2 2527   2.431   3.740   4.039  1.3856 -0.0232 -0.5259
  798SOL     OW 2528   4.317   2.800   0.983 -0.1199 -0.2424  0.1711
  798SOL    HW1 2529   4.341   2.892   0.977  0.2246 -0.1607  2.1313
  798SOL    HW2 2530   4.246   2.789   0.920  1.8029  0.6144 -2.3443
  799SOL     OW 2531   0.129   3.762   0.307  0.5400 -0.1125  0.1044
  799SOL    HW1 2532   0.078   3.827   0.257 -0.4985 -1.0574 -0.0991
  799SOL    HW2 2533   0.109   3.780   0.398  2.0072  1.2602  0.2056
  800SOL     OW 2534   2.251   4.526   1.805 -0.2979  0.1870  0.2457
  800SOL    HW1 2535   2.224   4.483   1.724 -0.2724 -2.9565  1.7135
  800SOL    HW2 2536   2.170   4.563   1.841 -0.8317 -0.7249  0.0248
  801SOL     OW 2537   1.172   0.327   2.489  0.1029  0.1778  0.4490
  801SOL    HW1 2538   1.159   0.405   2.542 -1.7075 -0.7450  1.4580
  801SOL    HW2 2539   1.142   0.352   2.402 -1.2259  0.4274  0.9478
  802SOL     OW 2540   0.702   4.721   4.506  0.1328  0.4283  0.3558
  802SOL    HW1 2541   0.658   4.783   4.565 -0.4685  1.1895 -0.8578
  802SOL    HW2 2542   0.714   4.643   4.559 -0.2523  1.1441  1.5435
  803SOL     OW 2543   3.958   0.809   4.606 -0.0055  0.2841 -0.1210
  803SOL    HW1 2544   3.915   0.742   4.659  0.0274 -0.0928 -0.5599
  803SOL    HW2 2545   3.899   0.820   4.531 -0.2806  1.1377  0.2155
  804SOL     OW 2546   2.347   3.077   1.884 -0.3600  0.4630 -0.7641
  804SOL    HW1 2547   2.258   3.084   1.848 -1.1087  0.9902  1.0460
  804SOL    HW2 2548   2.363   2.983   1.892 -0.3725  0.3513 -1.9598
  805SOL     OW 2549   0.337   3.795   0.138 -0.6102 -0.3919  0.3811
  805SOL    HW1 2550   0.271   3.770   0.202 -0.9298 -0.4904  0.0176
  805SOL    HW2 2551   0.290   3.849   0.074 -0.0094  0.8712  0.9618
  806SOL     OW 2552   0.055   0.582   1.201 -0.3513  0.5096 -0.1602
  806SOL    HW1 2553   0.147   0.558   1.215 -0.4779  0.5647  0.7917
  806SOL    HW2 2554   0.056   0.678   1.199 -0.3865  0.5089 -0.2282
  807SOL     OW 2555   0.125   0.253   3.106 -0.1960  0.5039 -0.7419
  807SOL    HW1 2556   0.197   0.284   3.050  0.5978 -0.4733 -0.2887
  807SOL    HW2 2557   0.145   0.161   3.123 -1.9586 -0.0014 -1.2005
  808SOL     OW 2558   1.662   2.385   2.435 -0.3595 -0.0042  0.0278
  808SOL    HW1 2559   1.695   2.297   2.453 -0.5027 -0.0788 -0.0674
  808SOL    HW2 2560   1.738   2.442   2.444 -0.3319 -0.0986  0.4011
  809SOL     OW 2561   0.188   4.559   4.808 -0.1757  0.3650  0.0787
  809SOL    HW1 2562   0.166   4.648   4.837 -1.3424  0.6625 -1.5544
  809SOL    HW2 2563   0.148   4.502   4.874 -2.7508  1.0123 -0.7866
  810SOL     OW 2564   2.470   1.470   1.567 -0.3621  0.4407 -0.0550
  810SOL    HW1 2565   2.491   1.400   1.629 -1.4246  0.8304  0.7829
  810SOL    HW2 2566   2.416   1.530   1.618  0.1893  1.6625 -0.8816
  811SOL     OW 2567   1.151   0.800   3.682 -0.5367 -0.1199 -0.0769
  811SOL    HW1 2568   1.204   0.879   3.695 -0.2347 -0.6871  2.9909
  811SOL    HW2 2569   1.086   0.804   3.753 -1.3696 -1.9553 -0.6889
  812SOL     OW 2570   0.654   3.134   2.929  0.1949  0.8858 -0.1845
  812SOL    HW1 2571   0.701   3.106   3.007  1.3250  2.5562 -0.2162
  812SOL    HW2 2572   0.716   3.119   2.857  0.3878  2.2846 -0.3390
  813SOL     OW 2573   3.682   2.534   2.484  0.6283  0.6428  0.5120
  813SOL    HW1 2574   3.771   2.540   2.519  0.4121  0.1611  1.1769
  813SOL    HW2 2575   3.679   2.447   2.443  0.1865  0.2530  1.3373
  814SOL     OW 2576   3.533   1.940   3.056  0.6031  0.0398 -0.3455
  814SOL    HW1 2577   3.517   1.978   2.970 -1.2708  0.4048  0.1225
  814SOL    HW2 2578   3.604   1.993   3.093  1.2487  0.0426 -1.5358
  815SOL     OW 2579   4.382   0.132   3.321  0.0626 -0.1671  0.0599
  815SOL    HW1 2580   4.405   0.192   3.393  1.4720 -1.3614  0.6601
  815SOL    HW2 2581   4.466   0.113   3.279 -0.3385 -1.7537 -0.0729
  816SOL     OW 2582   0.770   4.789   1.147  0.0083  0.1490 -0.1830
  816SOL    HW1 2583   0.769   4.864   1.088 -0.2949  0.2841 -0.0065
  816SOL    HW2 2584   0.739   4.824   1.231 -5.5363 -1.1654 -1.3024
  817SOL     OW 2585   1.858   0.436   2.925 -0.6112  0.2867 -0.3722
  817SOL    HW1 2586   1.949   0.414   2.906 -0.4481  0.5411  0.1012
  817SOL    HW2 2587   1.808   0.372   2.875 -0.1893  0.4874 -1.0699
  818SOL     OW 2588   3.880   0.387   0.572  0.0164 -0.4641 -0.3305
  818SOL    HW1 2589   3.964   0.375   0.617  1.2732  1.7348 -1.8530
  818SOL    HW2 2590   3.819   0.412   0.640  0.8410 -1.1119  0.6743
  819SOL     OW 2591   0.259   2.596   3.264  0.1137  0.0317  0.1823
  819SOL    HW1 2592   0.298   2.669   3.216  1.5410  1.1929  2.8472
  819SOL    HW2 2593   0.205   2.551   3.200  1.7642  1.4834 -2.4289
  820SOL     OW 2594   4.503   0.714   0.444  0.2056  0.1232 -0.1352
  820SOL    HW1 2595   4.530   0.774   0.376  0.1387 -0.7494 -0.9559
  820SOL    HW2 2596   4.492   0.768   0.522  1.7040  0.9219 -0.4349
  821SOL     OW 2597   2.517   2.021   3.607 -0.1068 -0.4535 -0.2658
  821SOL    HW1 2598   2.608   2.037   3.631 -0.6340 -0.0708  1.6414
  821SOL    HW2 2599   2.521   1.995   3.515  2.0773 -2.0033  0.1812
  822SOL     OW 2600   0.894   1.435   1.240 -0.2441 -0.0817  0.3474
  822SOL    HW1 2601   0.840   1.490   1.296  0.7080  1.3617 -0.1111
  822SOL    HW2 2602   0.831   1.380   1.193 -1.1329 -0.2943  1.7177
  823SOL     OW 2603   1.238   3.373   2.393  0.1264  0.0275 -0.4158
  823SOL    HW1 2604   1.158   3.325   2.414  0.0261  0.6320  0.6599
  823SOL    HW2 2605   1.305   3.306   2.383 -0.6539 -0.5413 -2.0839
  824SOL     OW 2606   3.050   3.239   3.647  0.6829 -0.3608 -0.1026
  824SOL    HW1 2607   3.088   3.167   3.698  0.6633  0.4742  1.1234
  824SOL    HW2 2608   3.118   3.260   3.582  0.3629 -2.0023 -1.0392
  825SOL     OW 2609   4.456   3.137   0.885 -0.3831  0.0234  0.2732
  825SOL    HW1 2610   4.523   3.170   0.945 -0.3303 -0.0005  0.2269
  825SOL    HW2 2611   4.374   3.148   0.933 -0.2117 -1.2154  0.8818
  826SOL     OW 2612   4.540   0.314   4.903 -0.1749  0.4734  1.1145
  826SOL    HW1 2613   4.488   0.360   4.968 -0.2593  1.4746  0.3715
  826SOL    HW2 2614   4.499   0.228   4.895 -1.1538  0.9275  1.1999
  827SOL     OW 2615   3.121   1.448   4.591  0.0344  0.4033  0.0676
  827SOL    HW1 2616   3.037   1.431   4.550 -0.8775  1.8275  1.2512
  827SOL    HW2 2617   3.135   1.374   4.650 -1.2165  0.9489  1.0921
  828SOL     OW 2618   1.355   3.750   2.211  0.2240 -0.4744  0.0739
  828SOL    HW1 2619   1.406   3.701   2.147  1.0226  0.8605 -0.3518
  828SOL    HW2 2620   1.411   3.756   2.288  0.3892  0.2777 -0.0965
  829SOL     OW 2621   2.398   0.469   2.612  0.3352  0.4257 -0.8812
  829SOL    HW1 2622   2.323   0.527   2.594 -0.6786 -0.8780 -1.0077
  829SOL    HW2 2623   2.366   0.381   2.592  1.8827 -0.1846 -0.8292
  830SOL     OW 2624   0.918   1.382   2.730 -0.4920 -0.2017  0.0051
  830SOL    HW1 2625   0.867   1.307   2.761  0.6569 -0.7011  0.7620
  830SOL    HW2 2626   0.942   1.430   2.810  0.4658 -0.1428 -0.3021
  831SOL     OW 2627   5.014   4.792   4.832 -0.3076 -0.6424 -0.5550
  831SOL    HW1 2628   5.032   4.840   4.912 -0.3665 -0.8901 -0.3926
  831SOL    HW2 2629   4.951   4.847   4.785 -1.8282 -1.4140  0.4787
  832SOL     OW 2630   4.784   4.236   1.633  0.2009  0.3113 -0.2898
  832SOL    HW1 2631   4.741   4.187   1.563 -1.6061 -0.4283  1.2736
  832SOL    HW2 2632   4.781   4.327   1.603 -0.2926 -0.0168 -1.2902
  833SOL     OW 2633   2.346   2.251   0.798  0.3375 -0.1541  0.6252
  833SOL    HW1 2634   2.346   2.206   0.883  0.1609  1.5431  1.5623
  833SOL    HW2 2635   2.254   2.259   0.775  0.4058 -1.2698 -0.1239
  834SOL     OW 2636   0.104   1.740   3.717  0.0148 -0.1219 -0.0377
  834SOL    HW1 2637   0.101   1.730   3.622 -2.0133 -1.8923  0.1225
  834SOL    HW2 2638   0.165   1.672   3.746 -2.7780 -2.8445  0.0886
  835SOL     OW 2639   2.456   0.491   0.905 -0.1598  0.5709  0.3978
  835SOL    HW1 2640   2.536   0.438   0.899 -0.3757  0.4000 -1.8454
  835SOL    HW2 2641   2.422   0.472   0.992  0.2359 -2.3453  0.0409
  836SOL     OW 2642   4.374   1.342   0.106 -0.0840  0.0216  0.7215
  836SOL    HW1 2643   4.336   1.426   0.080 -0.1849  0.6572  2.7722
  836SOL    HW2 2644   4.391   1.351   0.199  1.7132 -1.5701  0.6086
  837SOL     OW 2645   3.291   2.498   1.167 -0.3165 -0.4626  0.4119
  837SOL    HW1 2646   3.343   2.459   1.096  1.3558  0.8710  0.8241
  837SOL    HW2 2647   3.205   2.458   1.159  0.6111 -2.3821 -0.6723
  838SOL     OW 2648   4.713   1.384   0.149  0.1994  0.7309 -0.6876
  838SOL    HW1 2649   4.647   1.451   0.162 -0.1870  0.2570 -0.1194
  838SOL    HW2 2650   4.790   1.431   0.116 -0.5130  1.2418 -1.6728
  839SOL     OW 2651   2.908   2.902   2.574  0.0181  0.3721  0.6894
  839SOL    HW1 2652   2.898   2.814   2.539 -0.7385  1.2245 -1.3802
  839SOL    HW2 2653   2.968   2.892   2.648  0.5431 -1.7569  0.0336
  840SOL     OW 2654   3.410   4.245   2.358 -0.6487 -0.2493 -0.0320
  840SOL    HW1 2655   3.365   4.256   2.274  1.5950 -0.2610 -1.3240
  840SOL    HW2 2656   3.345   4.271   2.423 -3.1540 -2.0806 -1.5944
  841SOL     OW 2657   4.498   1.835   2.895  0.8113  1.0154 -0.1797
  841SOL    HW1 2658   4.419   1.789   2.869  0.8754  0.7923  0.0190
  841SOL    HW2 2659   4.569   1.783   2.858  0.8308  2.0691 -1.7480
  842SOL     OW 2660   1.879   2.586   2.388  0.5115  0.0032 -0.7776
  842SOL    HW1 2661   1.878   2.664   2.333 -1.5046  0.7105  0.1579
  842SOL    HW2 2662   1.910   2.618   2.473  0.9594 -0.5026 -0.7467
  843SOL     OW 2663   1.842   4.811   3.114  0.2569 -0.2967  0.4440
  843SOL    HW1 2664   1.887   4.726   3.117  0.7097 -0.2563 -2.3560
  843SOL    HW2 2665   1.894   4.868   3.170  0.2834 -1.6956  1.9014
  844SOL     OW 2666   4.854   2.434   2.460  0.7466 -0.5171 -0.3964
  844SOL    HW1 2667   4.904   2.413   2.539 -0.7047  0.3837  0.8273
  844SOL    HW2 2668   4.774   2.383   2.469  0.0872  0.4351 -0.7174
  845SOL     OW 2669   1.619   2.209   1.623 -0.3482 -0.3136 -0.0220
  845SOL    HW1 2670   1.695   2.156   1.649 -0.0425  0.1839  0.1202
  845SOL    HW2 2671   1.618   2.203   1.528  0.8758  1.0187 -0.1464
  846SOL     OW 2672   1.801   3.441   3.728  0.0360 -0.5692 -0.8140
  846SOL    HW1 2673   1.772   3.370   3.670 -0.2340 -0.8250 -0.3754
  846SOL    HW2 2674   1.720   3.484   3.755 -0.0373 -1.6929  0.9408
  847SOL     OW 2675   1.279   0.938   0.738  0.2121 -1.0581 -0.2441
  847SOL    HW1 2676   1.342   0.958   0.807 -0.1274 -0.1171 -0.1916
  847SOL    HW2 2677   1.317   0.863   0.692  1.5577 -0.2810 -0.4435
  848SOL     OW 2678   0.923   0.863   2.669  0.1751  0.5049 -0.2695
  848SOL    HW1 2679   0.828   0.855   2.677  0.2192 -1.5944 -1.1337
  848SOL    HW2 2680   0.937   0.949   2.630 -1.1313  2.1735  2.6686
  849SOL     OW 2681   0.656   2.173   4.788 -0.3312 -0.1624 -0.3595
  849SOL    HW1 2682   0.703   2.256   4.777 -1.2674  0.2709 -1.2631
  849SOL    HW2 2683   0.583   2.178   4.726  0.0291 -1.9947 -1.0084
  850SOL     OW 2684   4.426   2.167   4.501 -0.0452 -0.1430  0.1552
  850SOL    HW1 2685   4.511   2.159   4.544  0.5298  0.0817 -0.9035
  850SOL    HW2 2686   4.420   2.260   4.478 -1.2257  0.1368  1.4919
  851SOL     OW 2687   0.143   0.725   3.676  0.6113  0.0553  0.1268
  851SOL    HW1 2688   0.188   0.793   3.726  0.7323 -0.0153  0.1147
  851SOL    HW2 2689   0.064   0.707   3.726  0.6265  0.1370  0.1801
  852SOL     OW 2690   2.104   1.723   0.999 -0.6037 -0.4548 -0.7123
  852SOL    HW1 2691   2.070   1.694   1.084  0.4343  2.0200  0.6644
  852SOL    HW2 2692   2.031   1.770   0.959 -0.7653 -0.6990 -0.7065
  853SOL     OW 2693   0.366   3.416   3.458  1.0199 -0.9765 -0.2303
  853SOL    HW1 2694   0.416   3.428   3.539  2.4839  0.0795 -1.2149
  853SOL    HW2 2695   0.293   3.360   3.482  1.3773 -0.6349  1.8257
  854SOL     OW 2696   0.923   2.686   3.557 -0.2367  0.3671 -0.1609
  854SOL    HW1 2697   0.829   2.696   3.540 -0.0641  3.4779  0.0626
  854SOL    HW2 2698   0.943   2.596   3.532 -3.3914 -0.6103  0.4052
  855SOL     OW 2699   4.952   2.323   2.971  0.0667 -1.0786 -0.5609
  855SOL    HW1 2700   5.024   2.278   3.016 -0.6436 -1.5641  0.1363
  855SOL    HW2 2701   4.880   2.260   2.974 -1.0070  0.1336  0.5575
  856SOL     OW 2702   0.525   3.962   0.004  0.4929 -0.5810 -0.0591
  856SOL    HW1 2703   0.498   3.905   0.075 -0.5921 -1.8461 -1.4158
  856SOL    HW2 2704   0.557   3.903  -0.064  1.3786  0.5743 -0.6958
  857SOL     OW 2705   1.319   1.581   1.690  0.0836  0.1443 -0.0208
  857SOL    HW1 2706   1.406   1.558   1.723  0.0368  0.8324  0.6085
  857SOL    HW2 2707   1.335   1.633   1.612  0.3689  2.9733  1.7947
  858SOL     OW 2708   4.863   1.027   2.630 -0.0756  0.1862  0.1595
  858SOL    HW1 2709   4.943   1.079   2.621  1.3814 -1.9631  0.0906
  858SOL    HW2 2710   4.808   1.055   2.557  0.2118  2.3111  0.6945
  859SOL     OW 2711   0.995   3.841   0.221 -0.1375 -0.9430  0.1288
  859SOL    HW1 2712   0.998   3.868   0.312  1.6756 -2.1980  0.5029
  859SOL    HW2 2713   1.076   3.874   0.183  0.2913 -2.4763 -0.3755
  860SOL     OW 2714   4.666   3.340   2.273 -0.1188 -0.3133  0.1535
  860SOL    HW1 2715   4.716   3.259   2.285  0.5097 -0.2282 -1.6650
  860SOL    HW2 2716   4.612   3.325   2.196 -1.3454  0.3768  0.8398
  861SOL     OW 2717   2.175   3.746   4.998 -0.0331 -0.0042 -0.2263
  861SOL    HW1 2718   2.211   3.835   4.999  1.1877 -0.4621  2.1322
  861SOL    HW2 2719   2.207   3.708   4.916  0.6109  1.2601 -0.5826
  862SOL     OW 2720   0.881   4.352   1.146 -0.0320 -0.4660  0.1591
  862SOL    HW1 2721   0.789   4.376   1.159  0.0890  0.4959 -0.5824
  862SOL    HW2 2722   0.878   4.264   1.109 -0.6038 -0.8350  1.0508
  863SOL     OW 2723   0.954   3.332   2.493 -0.6107 -0.3020  0.7674
  863SOL    HW1 2724   0.984   3.283   2.569  2.7329 -0.8166 -0.7202
  863SOL    HW2 2725   0.919   3.413   2.529 -0.8343 -1.2765  2.9012
  864SOL     OW 2726   1.189   0.107   4.271 -0.3251 -0.3833 -0.6280
  864SOL    HW1 2727   1.250   0.145   4.334 -1.6215  0.7760 -0.0137
  864SOL    HW2 2728   1.243   0.089   4.194  0.8469  0.3025 -0.0072
  865SOL     OW 2729   1.033   2.205   4.948 -0.4827 -0.2008 -0.1779
  865SOL    HW1 2730   1.087   2.194   4.870  0.2909  0.7501  0.2135
  865SOL    HW2 2731   1.076   2.153   5.015 -0.4284  0.0294 -0.0356
  866SOL     OW 2732   1.148   2.259   2.273  0.0126 -0.2497 -0.4148
  866SOL    HW1 2733   1.216   2.325   2.282  1.8362 -2.0453 -0.2170
  866SOL    HW2 2734   1.070   2.299   2.312  1.0938  1.6535 -0.0764
  867SOL     OW 2735   0.175   2.782   0.500 -0.2549 -0.1166 -0.2277
  867SOL    HW1 2736   0.262   2.741   0.504 -0.0663  0.1518 -1.3102
  867SOL    HW2 2737   0.121   2.718   0.455  0.4350  1.3864 -3.4503
  868SOL     OW 2738   3.024   1.537   4.949  0.2269  0.4794 -0.7910
  868SOL    HW1 2739   3.083   1.611   4.966 -1.5160  1.6134  0.5662
  868SOL    HW2 2740   2.942   1.577   4.922 -1.1469 -0.8599  1.1089
  869SOL     OW 2741   2.056   0.125   1.776 -0.2103  0.5621 -0.0635
  869SOL    HW1 2742   2.055   0.218   1.796  0.2166  0.4027  0.7413
  869SOL    HW2 2743   2.124   0.115   1.709  0.0812  0.7607  0.2023
  870SOL     OW 2744   4.086   1.216   0.354 -0.5503 -0.2125 -0.1598
  870SOL    HW1 2745   4.154   1.244   0.415  0.2197  0.2807 -1.2176
  870SOL    HW2 2746   4.120   1.134   0.317  0.1555  0.7237 -1.7010
  871SOL     OW 2747   4.319   0.066   2.569  0.2431  0.1228  0.1263
  871SOL    HW1 2748   4.369   0.137   2.529  1.1048  0.1731  1.2501
  871SOL    HW2 2749   4.283   0.104   2.649  0.0139 -0.4589  0.3021
  872SOL     OW 2750   4.351   2.822   4.227 -0.1116  0.4714 -0.2743
  872SOL    HW1 2751   4.419   2.864   4.281 -0.7547  0.5865  0.4674
  872SOL    HW2 2752   4.369   2.853   4.138  0.4436  0.9838  0.0013
  873SOL     OW 2753   4.116   0.040   4.471  0.0237 -0.7586  0.2765
  873SOL    HW1 2754   4.089   0.128   4.497 -2.9336 -1.1462 -1.0980
  873SOL    HW2 2755   4.211   0.047   4.460 -0.1175  2.3365 -0.0742
  874SOL     OW 2756   1.040   0.357   4.904 -0.2222  0.2715  0.5287
  874SOL    HW1 2757   1.106   0.395   4.963  0.5384 -0.9492  0.4998
  874SOL    HW2 2758   1.047   0.262   4.918  0.5173 -0.1399 -2.0622
  875SOL     OW 2759   1.760   3.899   1.758  0.3082 -0.1021  0.1326
  875SOL    HW1 2760   1.798   3.934   1.838 -0.7017  0.6189  0.3226
  875SOL    HW2 2761   1.709   3.823   1.787  0.1375  0.0162  0.1461
  876SOL     OW 2762   4.287   1.580   2.269  0.3468  0.5650  0.1883
  876SOL    HW1 2763   4.348   1.508   2.286 -0.6068  0.4204  3.6395
  876SOL    HW2 2764   4.342   1.659   2.272  0.6702  0.3157  1.6393
  877SOL     OW 2765   4.542   0.489   1.816 -0.4700 -0.3359 -0.3720
  877SOL    HW1 2766   4.607   0.504   1.885 -1.4778 -1.6220  0.9125
  877SOL    HW2 2767   4.478   0.559   1.827 -1.1694 -1.1073  0.7126
  878SOL     OW 2768   3.251   0.913   0.763 -0.3406 -0.2150  0.4930
  878SOL    HW1 2769   3.329   0.880   0.807 -0.5309  0.4214  1.3524
  878SOL    HW2 2770   3.243   1.004   0.793 -0.6546  0.1521 -0.6400
  879SOL     OW 2771   4.140   3.206   3.606  0.1416  0.2723  0.1755
  879SOL    HW1 2772   4.180   3.293   3.615  0.0933  0.4222 -0.8895
  879SOL    HW2 2773   4.067   3.220   3.545  0.9464 -0.7624 -1.0731
  880SOL     OW 2774   2.659   2.704   0.695 -1.0333  0.5001  1.1325
  880SOL    HW1 2775   2.719   2.778   0.703  1.8756 -1.5652  0.1553
  880SOL    HW2 2776   2.615   2.718   0.611  1.8126 -0.3246 -0.6083
  881SOL     OW 2777   4.743   2.930   1.664 -0.1491 -0.0724 -0.0599
  881SOL    HW1 2778   4.678   2.944   1.595  0.6266  0.3702 -0.7189
  881SOL    HW2 2779   4.757   3.017   1.702  1.6890  0.3114 -1.4413
  882SOL     OW 2780   0.659   0.080   3.823 -0.2136  0.2634  0.1057
  882SOL    HW1 2781   0.731   0.135   3.793 -0.0675  0.1027  0.1569
  882SOL    HW2 2782   0.582   0.113   3.777 -0.5083  1.7869  1.6114
  883SOL     OW 2783   1.124   1.657   1.270  0.4843  0.2646  0.1260
  883SOL    HW1 2784   1.157   1.640   1.181  3.2883  1.1709  0.8822
  883SOL    HW2 2785   1.124   1.571   1.311 -2.0941 -0.3900 -1.0326
  884SOL     OW 2786   1.991   1.257   1.860 -0.0823 -0.1057 -0.1860
  884SOL    HW1 2787   2.048   1.325   1.895 -1.9249  1.1422  0.5801
  884SOL    HW2 2788   1.974   1.199   1.934 -0.7229  0.2160 -0.0666
  885SOL     OW 2789   2.698   2.952   1.591 -0.2360 -0.4542 -0.1408
  885SOL    HW1 2790   2.672   2.937   1.500 -0.8824 -0.0805 -0.0189
  885SOL    HW2 2791   2.776   3.006   1.585 -1.2653  1.0583 -0.4460
  886SOL     OW 2792   0.714   1.005   2.493  0.4934  0.1445  0.0898
  886SOL    HW1 2793   0.807   1.027   2.487  0.5343 -0.0721 -0.1053
  886SOL    HW2 2794   0.713   0.919   2.535  0.5459 -1.0709 -2.2009
  887SOL     OW 2795   3.844   3.897   3.294  0.2539 -0.0003 -0.4074
  887SOL    HW1 2796   3.815   3.874   3.205  0.9770  1.0338 -0.9294
  887SOL    HW2 2797   3.783   3.850   3.351  0.1692 -1.2112 -1.4277
  888SOL     OW 2798   0.617   2.348   1.421  0.4862  0.3211  1.0435
  888SOL    HW1 2799   0.617   2.253   1.415  1.5483  0.3452  0.4870
  888SOL    HW2 2800   0.534   2.369   1.465 -0.1873 -0.7965  0.3645
  889SOL     OW 2801   1.375   4.839   0.869 -0.0590 -0.0326  0.5464
  889SOL    HW1 2802   1.300   4.892   0.843 -2.6900 -2.8329  1.8256
  889SOL    HW2 2803   1.396   4.869   0.957  0.4871  0.8777  0.1193
  890SOL     OW 2804   2.597   1.677   0.642  0.0002  0.0760 -0.3272
  890SOL    HW1 2805   2.599   1.591   0.600 -1.0748 -0.6476  0.9995
  890SOL    HW2 2806   2.688   1.706   0.642  0.8732 -2.3073  1.5943
  891SOL     OW 2807   2.849   0.284   3.068  0.0084  0.3377 -0.7506
  891SOL    HW1 2808   2.812   0.257   2.984 -1.7959 -0.8792  0.3633
  891SOL    HW2 2809   2.883   0.203   3.107  0.5043  0.8188 -0.1631
  892SOL     OW 2810   3.002   0.496   1.393  0.0337 -0.2450  0.6249
  892SOL    HW1 2811   2.991   0.515   1.300  1.5287  1.0295  0.6675
  892SOL    HW2 2812   2.956   0.413   1.406 -0.2683 -0.4146 -1.2236
  893SOL     OW 2813   3.427   0.360   0.945 -0.1633 -0.0785 -0.3683
  893SOL    HW1 2814   3.357   0.304   0.912 -1.0990  0.1022  1.1811
  893SOL    HW2 2815   3.388   0.406   1.019  1.0115  1.5621 -0.7067
  894SOL     OW 2816   3.224   2.322   0.387  0.1780  0.1098 -0.3366
  894SOL    HW1 2817   3.282   2.291   0.456 -0.7953 -1.8173 -0.3101
  894SOL    HW2 2818   3.138   2.287   0.410 -0.5214  0.9000 -1.6047
  895SOL     OW 2819   3.466   0.835   0.907  0.0225  0.4068 -0.0980
  895SOL    HW1 2820   3.501   0.758   0.952 -1.8477 -0.2203  0.3403
  895SOL    HW2 2821   3.508   0.909   0.951 -0.0439 -0.2736  1.1417
  896SOL     OW 2822   4.829   2.487   1.322 -0.5336 -1.0077 -0.2754
  896SOL    HW1 2823   4.889   2.477   1.247  1.1167  0.7401  0.7255
  896SOL    HW2 2824   4.774   2.562   1.299 -0.4522 -0.8648 -0.0027
  897SOL     OW 2825   0.537   1.342   2.854  0.4513  0.1646 -0.2056
  897SOL    HW1 2826   0.494   1.367   2.773  0.1971  0.4212  0.0064
  897SOL    HW2 2827   0.519   1.415   2.914 -1.7042 -1.2075  0.9445
  898SOL     OW 2828   0.267   3.160   4.632 -0.1649 -0.5020 -0.0844
  898SOL    HW1 2829   0.290   3.242   4.676  1.7213 -0.1661 -1.6021
  898SOL    HW2 2830   0.313   3.092   4.682  0.4133 -0.3423 -0.4035
  899SOL     OW 2831   2.413   2.061   0.552  0.1706  0.0127  0.4367
  899SOL    HW1 2832   2.498   2.104   0.545 -0.2134  0.7069 -0.0466
  899SOL    HW2 2833   2.421   2.004   0.629  0.7731  0.7477  0.9300
  900SOL     OW 2834   2.952   0.436   4.599 -0.6561 -0.4418  0.0757
  900SOL    HW1 2835   3.044   0.416   4.584 -0.4840 -0.0441  0.5894
  900SOL    HW2 2836   2.920   0.363   4.652 -0.1138  0.4217  1.6570
  901SOL     OW 2837   0.902   1.100   4.319  0.0488  0.1095 -0.6108
  901SOL    HW1 2838   0.963   1.036   4.356 -2.2436 -0.2797  2.9985
  901SOL    HW2 2839   0.846   1.049   4.261  0.4641 -0.4188 -0.5587
  902SOL     OW 2840   1.840   0.863   2.542  0.7166  0.7775 -0.0621
  902SOL    HW1 2841   1.821   0.791   2.603 -1.6845  1.0109 -0.4542
  902SOL    HW2 2842   1.840   0.822   2.456 -0.5472  1.1919 -0.2771
  903SOL     OW 2843   1.491   1.296   1.847  0.1712  0.4729 -0.2310
  903SOL    HW1 2844   1.519   1.386   1.833  2.4082 -0.3722 -1.7976
  903SOL    HW2 2845   1.572   1.246   1.852 -0.9293 -1.2367  2.7082
  904SOL     OW 2846   0.120   0.360   2.447 -0.1856 -0.5912  0.1850
  904SOL    HW1 2847   0.139   0.273   2.411 -0.3945 -0.0355 -1.3767
  904SOL    HW2 2848   0.024   0.363   2.450 -0.2010 -0.1502 -0.5102
  905SOL     OW 2849   3.066   3.838   1.138 -0.0838  0.1564 -0.5587
  905SOL    HW1 2850   3.059   3.748   1.171  1.1225 -0.1783 -1.1195
  905SOL    HW2 2851   3.143   3.874   1.183 -1.0062  1.1873  0.2345
  906SOL     OW 2852   2.884   0.296   1.045  0.7342 -0.4508  1.0463
  906SOL    HW1 2853   2.818   0.228   1.053 -0.8477  0.8797  0.0457
  906SOL    HW2 2854   2.964   0.250   1.020  0.4305 -2.1901  3.0337
  907SOL     OW 2855   3.350   4.387   1.923 -0.5003  0.3519  0.8072
  907SOL    HW1 2856   3.311   4.364   2.007 -2.2011  0.6409  0.1270
  907SOL    HW2 2857   3.286   4.359   1.858  0.8091  0.0743 -0.4142
  908SOL     OW 2858   1.386   4.539   3.359  0.1406  0.2195  0.4355
  908SOL    HW1 2859   1.331   4.560   3.284  0.3472 -0.8115 -0.0256
  908SOL    HW2 2860   1.440   4.616   3.373  1.1789 -0.1291 -1.4411
  909SOL     OW 2861   3.279   4.724   0.144 -0.3081  1.1057  0.4575
  909SOL    HW1 2862   3.325   4.660   0.089  1.7130 -0.7940  3.9944
  909SOL    HW2 2863   3.323   4.807   0.125  0.9287  0.3539 -0.1455
  910SOL     OW 2864   2.173   0.493   0.745  0.3309 -0.3860  0.8252
  910SOL    HW1 2865   2.267   0.474   0.755  0.5897  0.6099  0.4662
  910SOL    HW2 2866   2.136   0.473   0.830  0.7617 -1.3749  0.7939
  911SOL     OW 2867   3.268   2.677   0.266 -0.1816  0.5329 -0.2198
  911SOL    HW1 2868   3.236   2.621   0.337 -0.4369 -0.9531 -1.4606
  911SOL    HW2 2869   3.344   2.630   0.231 -0.7420  0.6655 -1.6677
  912SOL     OW 2870   2.572   1.324   0.330  0.0403 -0.2771  0.0143
  912SOL    HW1 2871   2.508   1.378   0.282 -0.1544 -1.0075 -0.5700
  912SOL    HW2 2872   2.525   1.244   0.351  0.5420 -0.5163  0.2443
  913SOL     OW 2873   4.597   2.248   4.212  0.6062 -0.2292 -1.3872
  913SOL    HW1 2874   4.638   2.161   4.212 -0.6114 -0.8462 -2.8871
  913SOL    HW2 2875   4.504   2.230   4.224  0.5062  1.0057 -0.1228
  914SOL     OW 2876   0.851   3.796   2.777 -0.0196 -0.5960 -0.5573
  914SOL    HW1 2877   0.947   3.797   2.781  0.2558 -2.4893 -3.2779
  914SOL    HW2 2878   0.824   3.743   2.852  0.9392  0.7189  0.7765
  915SOL     OW 2879   1.592   0.451   4.955  0.2499 -0.4179  0.2756
  915SOL    HW1 2880   1.629   0.530   4.916  2.5173 -2.1952 -1.4087
  915SOL    HW2 2881   1.498   0.470   4.961  0.5314  1.9288 -1.2278
  916SOL     OW 2882   2.458   2.832   3.530 -0.0089  0.2241  0.3569
  916SOL    HW1 2883   2.501   2.809   3.612  1.5137 -0.1555 -0.4993
  916SOL    HW2 2884   2.369   2.798   3.539  0.5978 -1.2379  1.2457
  917SOL     OW 2885   2.158   0.224   3.355 -0.1993 -0.2126  0.6802
  917SOL    HW1 2886   2.238   0.173   3.344 -0.2320 -0.5293  1.8140
  917SOL    HW2 2887   2.087   0.160   3.345 -0.3810  0.1801 -1.0220
  918SOL     OW 2888   3.326   2.212   2.824  0.0340 -0.0957 -0.3994
  918SOL    HW1 2889   3.404   2.184   2.870  1.8419  1.7358 -2.1321
  918SOL    HW2 2890   3.346   2.200   2.731 -2.3793 -1.0307 -0.8855
  919SOL     OW 2891   2.999   2.123   3.698 -0.2246  0.3179  0.3418
  919SOL    HW1 2892   3.035   2.207   3.671  0.4436 -0.0928 -0.0838
  919SOL    HW2 2893   3.057   2.094   3.768  0.2047 -0.2812 -0.2466
  920SOL     OW 2894   2.772   3.593   2.989 -0.1005  0.1493 -0.2025
  920SOL    HW1 2895   2.691   3.592   3.039  0.2042  0.1526  0.3031
  920SOL    HW2 2896   2.829   3.653   3.037  0.6604 -0.8677  0.2031
  921SOL     OW 2897   3.775   1.832   0.616 -0.1340  0.1791  0.2439
  921SOL    HW1 2898   3.749   1.895   0.683 -1.2673  0.7733 -0.7270
  921SOL    HW2 2899   3.724   1.753   0.637 -0.3963  0.3232  0.1454
  922SOL     OW 2900   3.480   3.430   2.085  0.0691 -0.2061  0.4520
  922SOL    HW1 2901   3.523   3.389   2.160  1.5115  0.7533  0.1748
  922SOL    HW2 2902   3.486   3.524   2.102 -1.8181 -0.0223  0.3224
  923SOL     OW 2903   3.790   0.046   1.798  0.2521  0.0938 -0.7830
  923SOL    HW1 2904   3.803   0.058   1.704 -0.6640 -1.2449 -1.1136
  923SOL    HW2 2905   3.873   0.011   1.830  0.7508  1.0814 -0.9788
  924SOL     OW 2906   0.387   3.400   2.229  0.1558 -0.4180  0.2354
  924SOL    HW1 2907   0.332   3.388   2.307  0.5591 -0.0465  0.5862
  924SOL    HW2 2908   0.380   3.493   2.209  2.4318  0.1652  1.6731
  925SOL     OW 2909   3.172   1.664   2.397 -0.6106 -0.2672 -0.3775
  925SOL    HW1 2910   3.106   1.657   2.328 -1.1691  1.6838 -0.0883
  925SOL    HW2 2911   3.126   1.703   2.471  0.7193  0.6192  0.0194
  926SOL     OW 2912   4.498   0.275   4.162 -0.1906  0.6967  0.6720
  926SOL    HW1 2913   4.432   0.210   4.185 -0.0818  0.7407  1.1175
  926SOL    HW2 2914   4.563   0.269   4.232  0.6751  0.1214 -0.1585
  927SOL     OW 2915   1.079   4.283   4.643  0.4252  0.4513 -1.4319
  927SOL    HW1 2916   1.060   4.368   4.682  2.2507  1.2108 -2.0784
  927SOL    HW2 2917   0.994   4.251   4.611 -0.9135  0.4543  1.7143
  928SOL     OW 2918   3.259   2.637   3.238  0.0108  0.4223  0.2719
  928SOL    HW1 2919   3.267   2.731   3.224  2.3061  0.3432  0.6152
  928SOL    HW2 2920   3.312   2.597   3.170  1.2162 -0.4752  1.6647
  929SOL     OW 2921   1.843   2.452   4.847 -0.3069  0.3120  0.0589
  929SOL    HW1 2922   1.843   2.529   4.790  0.0490  0.4988  0.3067
  929SOL    HW2 2923   1.935   2.429   4.856 -0.4082 -0.0901  0.0582
  930SOL     OW 2924   4.064   0.587   3.974  0.5180 -0.5707 -0.1173
  930SOL    HW1 2925   4.144   0.544   4.003  0.2631  0.8455  3.2195
  930SOL    HW2 2926   3.993   0.531   4.006  0.1674 -0.7876 -1.2495
  931SOL     OW 2927   0.049   4.959   3.397 -0.3868 -0.5458  0.3261
  931SOL    HW1 2928   0.068   5.021   3.467  0.6553 -1.3359  0.7671
  931SOL    HW2 2929   0.059   4.873   3.437 -1.0875 -1.0127 -0.4599
  932SOL     OW 2930   3.558   0.193   3.449 -0.0673  0.9767  0.3229
  932SOL    HW1 2931   3.620   0.210   3.379 -0.5506  0.5990 -0.2042
  932SOL    HW2 2932   3.602   0.223   3.528 -0.2336  3.1969 -0.3496
  933SOL     OW 2933   0.020   0.345   4.241 -0.2615  0.0455  0.9283
  933SOL    HW1 2934   0.097   0.288   4.235 -1.3349 -1.5724  1.6011
  933SOL    HW2 2935  -0.026   0.331   4.158  0.6278  1.7877  0.0920
  934SOL     OW 2936   0.084   3.015   2.511  0.2721 -0.0672 -0.6261
  934SOL    HW1 2937  -0.003   3.024   2.472  1.1702  0.3734 -2.6147
  934SOL    HW2 2938   0.067   3.019   2.606 -1.9327 -0.7474 -0.9244
  935SOL     OW 2939   3.809   0.612   0.849 -0.0956 -0.1393  0.0800
  935SOL    HW1 2940   3.886   0.557   0.855 -0.4364 -0.7985 -1.3677
  935SOL    HW2 2941   3.760   0.578   0.775 -0.8257  1.4752 -0.2225
  936SOL     OW 2942   0.626   2.619   3.582  0.3666  0.0612  0.0558
  936SOL    HW1 2943   0.542   2.659   3.602  0.2273 -0.6529  0.9765
  936SOL    HW2 2944   0.651   2.573   3.662  2.1586  1.1493  0.1878
  937SOL     OW 2945   3.321   0.868   0.065 -0.0899 -0.4609 -0.5073
  937SOL    HW1 2946   3.253   0.804   0.047 -2.1096  1.5737 -0.5651
  937SOL    HW2 2947   3.344   0.854   0.157 -3.0065  0.8523  0.5180
  938SOL     OW 2948   1.712   0.321   0.988  0.2289 -0.1198  0.3085
  938SOL    HW1 2949   1.746   0.388   1.046  0.7176 -0.6396  0.6330
  938SOL    HW2 2950   1.776   0.315   0.917 -0.5353  0.7517 -0.4836
  939SOL     OW 2951   4.500   4.144   4.130 -0.1625 -0.0049  0.7643
  939SOL    HW1 2952   4.454   4.227   4.144  0.6842  0.2327  2.3372
  939SOL    HW2 2953   4.588   4.170   4.103 -0.7270 -0.4569 -1.7932
  940SOL     OW 2954   3.958   2.947   1.570  0.2255  0.5366  0.2682
  940SOL    HW1 2955   3.950   2.890   1.647 -0.5753  1.0375  0.5729
  940SOL    HW2 2956   3.947   2.888   1.495 -0.3909  0.2531  0.5747
  941SOL     OW 2957   4.908   1.235   0.695 -0.1447  0.3485 -0.3839
  941SOL    HW1 2958   5.001   1.212   0.685  0.1292 -0.2143  2.5257
  941SOL    HW2 2959   4.899   1.317   0.646  1.0402 -1.1668 -3.4007
  942SOL     OW 2960   0.898   1.708   2.810 -0.2717 -0.0044  0.3172
  942SOL    HW1 2961   0.918   1.632   2.865  0.5036  0.0321  0.0989
  942SOL    HW2 2962   0.892   1.781   2.872 -2.1501 -0.4118  0.6644
  943SOL     OW 2963   0.325   1.111   0.808  0.0137 -0.3259 -0.2577
  943SOL    HW1 2964   0.264   1.165   0.757 -3.2073 -0.7257  2.7706
  943SOL    HW2 2965   0.405   1.163   0.813 -0.9120  1.4520 -2.3171
  944SOL     OW 2966   0.920   4.560   2.672  0.6726  0.2322 -0.5065
  944SOL    HW1 2967   1.007   4.530   2.698  0.8783  1.0310 -0.2564
  944SOL    HW2 2968   0.934   4.602   2.587  0.4118 -0.2325 -0.7840
  945SOL     OW 2969   3.948   4.255   0.266  0.0046 -0.2222 -0.5053
  945SOL    HW1 2970   3.952   4.341   0.224 -0.7969  0.4338  0.6971
  945SOL    HW2 2971   4.013   4.259   0.336  0.0793 -0.6575 -0.5449
  946SOL     OW 2972   4.907   2.973   2.027  0.3107  0.6345  0.4496
  946SOL    HW1 2973   4.857   2.966   1.945 -0.2674  0.3156  0.8272
  946SOL    HW2 2974   4.857   2.921   2.090  1.2456  0.1188  0.7758
  947SOL     OW 2975   0.260   4.179   1.619 -0.6337 -0.8023  0.4240
  947SOL    HW1 2976   0.290   4.096   1.656 -1.4910 -0.8566  1.0359
  947SOL    HW2 2977   0.222   4.226   1.694 -0.1014  0.1757  0.0992
  948SOL     OW 2978   0.394   2.070   1.270 -0.0973  0.2532 -0.7252
  948SOL    HW1 2979   0.388   2.137   1.201  1.5035  0.7121 -0.4773
  948SOL    HW2 2980   0.462   2.103   1.329 -0.8313 -0.5502  0.6241
  949SOL     OW 2981   4.917   2.081   4.465  0.4078 -0.2355  0.1725
  949SOL    HW1 2982   4.908   2.020   4.391 -2.1673 -0.0657  0.2832
  949SOL    HW2 2983   4.920   2.024   4.542 -1.3552 -0.3037  0.2266
  950SOL     OW 2984   1.364   4.440   4.185  0.4952 -0.6507  0.4782
  950SOL    HW1 2985   1.341   4.359   4.230  0.9926 -0.6944  0.6647
  950SOL    HW2 2986   1.409   4.492   4.252 -0.7167  0.2092  0.6541
  951SOL     OW 2987   3.351   2.841   3.527 -0.1692  0.6591  0.8507
  951SOL    HW1 2988   3.381   2.922   3.486 -0.6909  1.2454  1.6097
  951SOL    HW2 2989   3.394   2.839   3.612 -1.2997  0.8947  1.4449
  952SOL     OW 2990   4.904   1.663   0.574  0.1965 -0.4296 -0.2693
  952SOL    HW1 2991   4.897   1.683   0.667 -0.4491 -2.8868  0.2726
  952SOL    HW2 2992   4.892   1.748   0.530 -0.0212  0.6835  1.8361
  953SOL     OW 2993   4.027   4.019   0.806 -0.1534  0.4241  0.2894
  953SOL    HW1 2994   3.935   4.021   0.780 -0.1585  1.4687  0.3522
  953SOL    HW2 2995   4.075   4.042   0.726 -0.0319  1.2561  0.5980
  954SOL     OW 2996   4.225   3.453   3.688  0.0476 -0.2376 -0.4697
  954SOL    HW1 2997   4.219   3.526   3.627 -0.5729 -0.6755 -0.9391
  954SOL    HW2 2998   4.232   3.495   3.774  0.5331  0.3757 -0.8032
  955SOL     OW 2999   1.884   2.221   0.452  0.0106  0.1169  0.4874
  955SOL    HW1 3000   1.912   2.302   0.494 -0.0073  0.0254  0.6744
  955SOL    HW2 3001   1.852   2.166   0.523 -0.9516  0.3358  0.2406
  956SOL     OW 3002   4.413   4.535   2.845  0.1542  0.6912 -0.1455
  956SOL    HW1 3003   4.323   4.559   2.822 -0.4158 -3.0398 -2.5937
  956SOL    HW2 3004   4.404   4.467   2.911  1.0533 -0.5849 -1.2785
  957SOL     OW 3005   1.678   0.301   2.737  0.3723 -0.5779  0.2253
  957SOL    HW1 3006   1.717   0.286   2.651  0.5639  1.1742 -0.0426
  957SOL    HW2 3007   1.651   0.393   2.735 -0.9861 -0.9115  1.5170
  958SOL     OW 3008   3.936   3.589   4.147  0.8271 -0.0017 -0.0800
  958SOL    HW1 3009   3.925   3.683   4.158 -0.7559 -0.0524 -0.9583
  958SOL    HW2 3010   4.031   3.576   4.147  1.1231  1.1413  3.3048
  959SOL     OW 3011   4.887   1.366   1.320  0.3519 -0.3494  0.1943
  959SOL    HW1 3012   4.823   1.421   1.367  1.3816  0.8097  0.3015
  959SOL    HW2 3013   4.893   1.286   1.372 -1.0375 -0.5100  0.1496
  960SOL     OW 3014   4.449   4.554   1.324  0.2808 -0.1869 -0.3729
  960SOL    HW1 3015   4.360   4.525   1.304 -0.2253 -0.0903  1.5927
  960SOL    HW2 3016   4.482   4.587   1.240 -1.4339 -0.4383 -1.2005
  961SOL     OW 3017   2.013   0.111   2.637  0.0050  0.3253 -0.1055
  961SOL    HW1 3018   1.961   0.069   2.705  0.9517 -1.8169 -0.6300
  961SOL    HW2 3019   1.955   0.116   2.561 -0.1655  0.0938  0.0085
  962SOL     OW 3020   0.826   0.716   4.575  0.4323  0.9971 -0.0140
  962SOL    HW1 3021   0.753   0.656   4.560  0.1951  0.4944  2.6458
  962SOL    HW2 3022   0.901   0.658   4.591  0.8321  1.4575 -0.2149
  963SOL     OW 3023   1.863   4.385   2.771 -0.0788 -0.1198 -0.1721
  963SOL    HW1 3024   1.778   4.416   2.800  1.2639  1.4194  2.5676
  963SOL    HW2 3025   1.861   4.290   2.786 -0.4553  0.2406  2.5227
  964SOL     OW 3026   1.834   3.654   4.684 -0.7381 -0.0632 -0.5612
  964SOL    HW1 3027   1.758   3.711   4.700  0.1599  0.7924  0.8574
  964SOL    HW2 3028   1.880   3.695   4.611 -1.3382 -0.2626 -1.0524
  965SOL     OW 3029   3.160   2.642   3.497 -0.2412  0.5735 -0.3889
  965SOL    HW1 3030   3.207   2.621   3.417  0.4054 -0.2554  0.1859
  965SOL    HW2 3031   3.180   2.734   3.513 -0.4242  0.7550 -1.2094
  966SOL     OW 3032   4.714   4.927   2.160  0.6176  0.3188  0.3605
  966SOL    HW1 3033   4.642   4.916   2.223  1.6236 -0.9240  1.3564
  966SOL    HW2 3034   4.743   5.017   2.173  0.6392  0.1654  1.5328
  967SOL     OW 3035   1.294   1.244   3.230 -0.5815 -0.3222 -0.0695
  967SOL    HW1 3036   1.355   1.289   3.288  0.2788 -0.1647 -1.0543
  967SOL    HW2 3037   1.218   1.302   3.224  1.2951  2.1390 -2.8980
  968SOL     OW 3038   1.449   1.875   4.258 -0.3047 -0.1360  0.1265
  968SOL    HW1 3039   1.509   1.802   4.246 -0.6116 -0.0942 -1.8640
  968SOL    HW2 3040   1.363   1.835   4.271 -0.3597 -0.1425 -0.2563
  969SOL     OW 3041   0.778   2.923   2.483 -0.1226 -0.3379 -0.1821
  969SOL    HW1 3042   0.759   2.832   2.459 -0.0638 -0.7455  1.2087
  969SOL    HW2 3043   0.702   2.973   2.452 -0.7318 -1.0549  0.1220
  970SOL     OW 3044   0.877   1.651   3.351  1.0828 -0.0708  0.2960
  970SOL    HW1 3045   0.898   1.713   3.421  2.4719 -0.2845  0.1105
  970SOL    HW2 3046   0.953   1.592   3.348  1.0812 -0.0308 -1.4192
  971SOL     OW 3047   4.537   0.385   3.920 -0.1705 -0.2436 -0.7023
  971SOL    HW1 3048   4.611   0.333   3.889 -1.0424 -0.9537 -1.6646
  971SOL    HW2 3049   4.517   0.349   4.006 -0.3820 -1.1197 -1.1055
  972SOL     OW 3050   3.950   1.280   4.534  0.8262 -0.3874 -0.0091
  972SOL    HW1 3051   3.926   1.216   4.601 -2.3754  1.0092  0.3801
  972SOL    HW2 3052   3.938   1.234   4.451 -0.5370 -0.6035  0.2890
  973SOL     OW 3053   3.417   1.916   4.064 -0.3121  0.2936  0.2939
  973SOL    HW1 3054   3.414   1.820   4.075  1.0309  0.2069  0.0532
  973SOL    HW2 3055   3.394   1.950   4.151 -2.9495 -0.1764 -0.1357
  974SOL     OW 3056   3.062   4.364   2.767  0.1155 -0.3686 -0.2713
  974SOL    HW1 3057   2.996   4.366   2.836 -0.9666 -1.2280 -1.2292
  974SOL    HW2 3058   3.110   4.283   2.782 -0.0897 -0.5328 -0.4838
  975SOL     OW 3059   0.912   4.600   1.283  0.0192 -0.1652 -0.8315
  975SOL    HW1 3060   0.874   4.669   1.228 -1.4189 -0.5024 -0.2786
  975SOL    HW2 3061   0.896   4.519   1.234  1.0305 -0.2216 -1.1117
  976SOL     OW 3062   2.405   0.720   3.759 -0.3152  0.5382  0.2811
  976SOL    HW1 3063   2.311   0.707   3.775 -0.3625 -1.1357 -1.0074
  976SOL    HW2 3064   2.409   0.799   3.705 -1.3540 -1.0525 -2.3191
  977SOL     OW 3065   3.911   3.402   1.863 -0.2555 -0.4297  0.0454
  977SOL    HW1 3066   3.890   3.484   1.908  1.1690 -0.2129  0.3430
  977SOL    HW2 3067   3.964   3.429   1.788  1.5601 -1.1943  1.0217
  978SOL     OW 3068   1.236   0.353   1.862 -0.9061  0.5287 -0.2127
  978SOL    HW1 3069   1.163   0.390   1.912 -1.4789  0.6789 -1.1338
  978SOL    HW2 3070   1.202   0.342   1.773 -0.8347 -2.4483  0.0269
  979SOL     OW 3071   0.103   2.539   2.264 -0.3235 -0.1236  0.0303
  979SOL    HW1 3072   0.072   2.550   2.174  0.4212 -1.2469 -0.3874
  979SOL    HW2 3073   0.025   2.554   2.317 -1.2199 -1.1969 -0.9044
  980SOL     OW 3074   0.960   3.419   3.967 -0.0710  0.9996  0.5382
  980SOL    HW1 3075   0.879   3.389   4.007  0.7555 -0.3203  1.2746
  980SOL    HW2 3076   0.932   3.466   3.888 -1.5086 -0.3367  0.2113
  981SOL     OW 3077   4.644   3.395   3.048  0.4261  0.2108  0.2206
  981SOL    HW1 3078   4.627   3.341   2.971 -0.6224 -1.0274  1.2612
  981SOL    HW2 3079   4.646   3.485   3.015 -0.2750 -0.2682 -1.2013
  982SOL     OW 3080   4.582   4.763   0.032  0.2543 -0.0990 -0.4573
  982SOL    HW1 3081   4.627   4.691   0.076  0.8152  1.1042  1.0133
  982SOL    HW2 3082   4.535   4.809   0.101  0.0130  1.0224 -1.3248
  983SOL     OW 3083   1.581   1.321   1.321  0.3153 -0.3054  0.7908
  983SOL    HW1 3084   1.497   1.366   1.324  0.2749 -0.3676  0.6256
  983SOL    HW2 3085   1.609   1.328   1.229  1.0333  0.6949  1.0662
  984SOL     OW 3086   3.042   2.582   1.877 -0.4078 -0.0745  1.4231
  984SOL    HW1 3087   3.117   2.597   1.935  0.5180  2.9093 -0.3223
  984SOL    HW2 3088   3.024   2.668   1.838 -1.3783 -1.7186 -2.1658
  985SOL     OW 3089   5.000   3.353   2.834 -0.0971  0.7004 -0.6601
  985SOL    HW1 3090   4.942   3.429   2.846 -2.2733 -0.9901  0.4538
  985SOL    HW2 3091   5.030   3.332   2.922 -2.4264 -1.7502 -0.3184
  986SOL     OW 3092   0.370   1.321   4.145 -0.0921 -0.6804 -0.7747
  986SOL    HW1 3093   0.372   1.401   4.198  0.4724 -1.3082  0.1775
  986SOL    HW2 3094   0.277   1.298   4.141 -0.4000  0.6480 -2.0466
  987SOL     OW 3095   2.432   0.925   1.277  0.6190 -0.2771 -0.3082
  987SOL    HW1 3096   2.385   0.888   1.203  0.4921 -0.0523 -0.3416
  987SOL    HW2 3097   2.393   0.882   1.354 -0.3662  0.6619 -0.2615
  988SOL     OW 3098   1.125   3.331   0.158  0.0504 -0.2501 -0.0925
  988SOL    HW1 3099   1.044   3.281   0.162  0.6584 -1.1569  2.2236
  988SOL    HW2 3100   1.147   3.350   0.249  2.6255 -0.3485 -0.5979
  989SOL     OW 3101   1.803   2.064   0.663  0.0640  0.0393 -0.5740
  989SOL    HW1 3102   1.813   1.969   0.653  0.4858  0.0957 -0.6928
  989SOL    HW2 3103   1.708   2.077   0.675  0.2361 -0.6411  2.0365
  990SOL     OW 3104   3.889   4.543   3.845 -0.0085 -0.0008 -0.6686
  990SOL    HW1 3105   3.975   4.586   3.845 -1.4222  3.1171  0.9298
  990SOL    HW2 3106   3.904   4.461   3.893  1.4770  2.2621  3.2646
  991SOL     OW 3107   0.113   2.927   0.732 -0.3931  0.3571 -0.3150
  991SOL    HW1 3108   0.030   2.957   0.694  0.1397 -0.3017 -2.0637
  991SOL    HW2 3109   0.147   2.863   0.669 -0.5650 -2.5631  2.2828
  992SOL     OW 3110   3.812   2.387   0.608  0.0792  0.1425 -0.1634
  992SOL    HW1 3111   3.788   2.341   0.689 -1.7429 -0.2403 -0.8829
  992SOL    HW2 3112   3.844   2.317   0.550 -2.7376 -0.3693 -1.2752
  993SOL     OW 3113   4.612   1.790   0.593  0.4250 -0.4728  0.3419
  993SOL    HW1 3114   4.595   1.845   0.670 -0.3218 -0.4582  0.1718
  993SOL    HW2 3115   4.572   1.706   0.615 -0.0895 -0.3619 -0.1703
  994SOL     OW 3116   2.896   3.695   0.324  0.2266  0.0690  0.1906
  994SOL    HW1 3117   2.863   3.757   0.258 -0.2542  0.6830  0.9851
  994SOL    HW2 3118   2.832   3.624   0.325  0.4165 -0.1102 -0.2420
  995SOL     OW 3119   1.979   2.052   1.410 -0.2801  0.2778 -0.0629
  995SOL    HW1 3120   1.927   1.979   1.378 -1.0662  1.1941 -0.9266
  995SOL    HW2 3121   1.945   2.129   1.363 -0.1797  1.3710  1.5541
  996SOL     OW 3122   4.504   3.616   2.133 -0.0529 -0.1042 -0.4902
  996SOL    HW1 3123   4.534   3.590   2.046 -0.4596  1.0817 -0.9989
  996SOL    HW2 3124   4.572   3.677   2.164 -0.2345 -0.0282 -0.2410
  997SOL     OW 3125   0.432   2.743   1.536  0.0062  0.4094 -0.2083
  997SOL    HW1 3126   0.441   2.691   1.616  1.6959 -0.9207 -1.1974
  997SOL    HW2 3127   0.368   2.811   1.559  0.4558  0.1046  2.2738
  998SOL     OW 3128   3.031   0.446   2.032 -0.2728  0.0809  0.3168
  998SOL    HW1 3129   3.126   0.439   2.021 -0.3675 -0.8025 -0.0656
  998SOL    HW2 3130   3.013   0.540   2.032  0.8333  0.3448  2.6180
  999SOL     OW 3131   3.657   0.225   4.089 -0.2102  0.3745  0.4100
  999SOL    HW1 3132   3.588   0.274   4.046 -0.5252 -1.2117 -1.0140
  999SOL    HW2 3133   3.618   0.140   4.109  1.1088 -0.3248  0.1815
 1000SOL     OW 3134   1.944   1.255   0.201  0.2575 -0.0357 -0.1825
 1000SOL    HW1 3135   1.990   1.266   0.284 -0.6748 -2.0368  0.6566
 1000SOL    HW2 3136   1.863   1.305   0.211 -0.5156 -1.4187  0.7019
 1001SOL     OW 3137   2.073   3.447   2.984 -0.1234 -0.0879 -0.6314
 1001SOL    HW1 3138   2.128   3.410   3.054  1.1697 -1.6537 -2.3564
 1001SOL    HW2 3139   2.114   3.531   2.963 -0.4125  0.3062  0.3523
 1002SOL     OW 3140   3.798   3.550   0.210  0.4108 -0.1680  0.0702
 1002SOL    HW1 3141   3.880   3.572   0.254  0.0795  0.5046  0.3690
 1002SOL    HW2 3142   3.740   3.625   0.228 -0.8796 -1.4193  1.3917
 1003SOL     OW 3143   0.765   2.186   0.899 -0.0620 -0.1616 -0.3846
 1003SOL    HW1 3144   0.784   2.165   0.807 -2.1721  2.3299 -1.5239
 1003SOL    HW2 3145   0.677   2.151   0.914  0.6958 -1.5379  1.1179
 1004SOL     OW 3146   2.520   2.793   2.452 -0.4547  0.2111 -0.3616
 1004SOL    HW1 3147   2.479   2.709   2.473 -4.0994  1.9931  0.4177
 1004SOL    HW2 3148   2.570   2.816   2.531 -0.7627 -0.4602  0.0361
 1005SOL     OW 3149   4.376   4.196   0.164 -0.0151 -0.2124 -0.5749
 1005SOL    HW1 3150   4.430   4.172   0.089  0.0468 -0.2472 -0.5188
 1005SOL    HW2 3151   4.345   4.284   0.144  0.0605 -0.1933 -0.6069
 1006SOL     OW 3152   4.170   0.441   4.940  0.0321 -0.0428 -0.1480
 1006SOL    HW1 3153   4.099   0.381   4.917 -0.8643 -0.0039  2.3118
 1006SOL    HW2 3154   4.140   0.526   4.909 -0.6799 -0.1448  0.2406
 1007SOL     OW 3155   0.713   2.031   1.202  0.0342  0.1548 -0.1134
 1007SOL    HW1 3156   0.791   2.010   1.253 -0.3367  0.1357  0.4532
 1007SOL    HW2 3157   0.645   1.973   1.235 -0.2445  0.2213 -0.5511
 1008SOL     OW 3158   1.056   3.174   2.666 -0.4292  0.2385  0.3606
 1008SOL    HW1 3159   1.105   3.223   2.732 -0.6486 -0.0998  0.7771
 1008SOL    HW2 3160   1.124   3.141   2.606 -0.2023  0.2956  0.5831
 1009SOL     OW 3161   3.138   2.058   3.916 -0.4626 -0.6569 -0.2850
 1009SOL    HW1 3162   3.195   1.981   3.908 -0.7287 -1.1133  1.6956
 1009SOL    HW2 3163   3.109   2.057   4.007 -1.5871  1.0307 -0.5794
 1010SOL     OW 3164   1.666   4.715   2.895 -0.1529  0.0813  0.4231
 1010SOL    HW1 3165   1.588   4.681   2.939  0.6380 -0.2298  1.6174
 1010SOL    HW2 3166   1.718   4.754   2.965  0.6437  0.5245 -0.4008
 1011SOL     OW 3167   0.472   1.641   2.393 -0.0777 -0.1497 -0.4792
 1011SOL    HW1 3168   0.393   1.674   2.435 -1.5787 -2.3438 -1.4199
 1011SOL    HW2 3169   0.460   1.546   2.390  1.7969 -0.4007 -2.2224
 1012SOL     OW 3170   3.947   4.927   3.563  0.5156  0.1140 -0.2777
 1012SOL    HW1 3171   4.025   4.941   3.508  0.1343 -1.0806 -1.1707
 1012SOL    HW2 3172   3.973   4.957   3.650  2.5921 -1.7624 -0.1354
 1013SOL     OW 3173   2.127   1.119   0.053  0.0055  0.1976 -0.3866
 1013SOL    HW1 3174   2.059   1.147   0.114  1.9575  0.6416  1.7426
 1013SOL    HW2 3175   2.208   1.124   0.104  1.5386 -1.1799 -2.5152
 1014SOL     OW 3176   3.216   3.462   2.068  0.7711  0.0251 -0.3098
 1014SOL    HW1 3177   3.306   3.430   2.062  0.3974 -1.3533  0.7910
 1014SOL    HW2 3178   3.217   3.522   2.143  0.8138  0.1318 -0.3963
 1015SOL     OW 3179   1.926   0.441   3.270 -0.4449  0.1594 -0.6241
 1015SOL    HW1 3180   1.853   0.495   3.301 -0.3524 -0.2123  0.2555
 1015SOL    HW2 3181   1.885   0.372   3.218 -0.4774  1.9401 -3.1814
 1016SOL     OW 3182   4.229   1.736   3.232  0.6113 -0.2761  0.0979
 1016SOL    HW1 3183   4.154   1.786   3.263 -0.6524 -1.5464 -0.8025
 1016SOL    HW2 3184   4.288   1.731   3.307  0.4331  1.8451  0.4454
 1017SOL     OW 3185   4.117   1.713   4.870 -0.5220  0.3544  0.2803
 1017SOL    HW1 3186   4.066   1.640   4.835 -1.0527  1.1263 -0.5689
 1017SOL    HW2 3187   4.205   1.701   4.834 -0.3483 -0.3941  0.9195
 1018SOL     OW 3188   3.381   1.114   2.510 -0.3313  0.2434  0.0868
 1018SOL    HW1 3189   3.336   1.030   2.507 -0.2143  0.1893 -0.1430
 1018SOL    HW2 3190   3.467   1.097   2.473  0.3218  0.0752  1.6215
 1019SOL     OW 3191   1.242   1.300   3.643 -0.5262 -0.6411  0.2539
 1019SOL    HW1 3192   1.323   1.349   3.661 -0.3879 -0.4957 -0.7133
 1019SOL    HW2 3193   1.173   1.355   3.680 -0.4806  0.8314 -1.6883
 1020SOL     OW 3194   0.405   2.029   1.641  0.0415 -0.2767 -0.2234
 1020SOL    HW1 3195   0.321   2.023   1.596  0.5326 -0.1563 -1.1720
 1020SOL    HW2 3196   0.383   2.067   1.727 -0.5655  2.3469 -1.4363
 1021SOL     OW 3197   3.978   2.343   1.681  0.7422  0.2040  0.3755
 1021SOL    HW1 3198   4.027   2.388   1.750  3.1325  0.7466 -1.5196
 1021SOL    HW2 3199   3.951   2.414   1.622 -0.5995 -0.3186  0.3321
 1022SOL     OW 3200   1.180   1.704   0.899 -0.0319 -0.5167  0.2770
 1022SOL    HW1 3201   1.188   1.644   0.825  0.3736 -0.0630 -0.0431
 1022SOL    HW2 3202   1.089   1.692   0.929  0.0064 -1.1952  0.1397
 1023SOL     OW 3203   0.865   1.181   0.495 -0.6212  0.2847  0.3149
 1023SOL    HW1 3204   0.773   1.189   0.522 -0.1449 -0.2122  2.3264
 1023SOL    HW2 3205   0.899   1.109   0.550  1.3448  1.4813  0.7712
 1024SOL     OW 3206   4.814   3.028   2.407 -0.4486  0.0372 -0.3932
 1024SOL    HW1 3207   4.815   3.073   2.322 -2.8037  2.6507  0.7945
 1024SOL    HW2 3208   4.796   3.098   2.470  2.2207 -1.6392  2.4496
 1025SOL     OW 3209   0.428   3.152   2.096 -0.9310 -0.6336  0.0677
 1025SOL    HW1 3210   0.403   3.240   2.126  0.3548 -0.7229  1.4784
 1025SOL    HW2 3211   0.345   3.104   2.095 -1.3983  0.1117  0.9655
 1026SOL     OW 3212   1.454   1.668   0.968  0.5256  0.1185  0.2303
 1026SOL    HW1 3213   1.366   1.689   0.934 -0.0951 -2.6115 -0.1062
 1026SOL    HW2 3214   1.446   1.677   1.062  0.0730  0.5771  0.1495
 1027SOL     OW 3215   1.384   3.992   3.361  0.2757  0.1250 -0.4271
 1027SOL    HW1 3216   1.290   4.010   3.359 -0.1695 -1.9765 -0.2111
 1027SOL    HW2 3217   1.421   4.054   3.298 -1.4401 -0.0030 -1.6298
 1028SOL     OW 3218   0.372   1.374   1.410  0.0301 -0.5148 -0.0198
 1028SOL    HW1 3219   0.388   1.424   1.490  0.7948  0.7920 -0.9572
 1028SOL    HW2 3220   0.292   1.411   1.373 -2.0560 -3.0696  1.5739
 1029SOL     OW 3221   4.815   3.510   0.038 -0.1554  0.3255  0.1752
 1029SOL    HW1 3222   4.886   3.567   0.006 -2.7547  3.6556 -0.1938
 1029SOL    HW2 3223   4.798   3.450  -0.035  2.4359 -0.8971  0.4411
 1030SOL     OW 3224   1.055   1.810   4.684 -0.4074 -0.1365  0.3887
 1030SOL    HW1 3225   0.992   1.872   4.720 -0.6260 -0.5688  0.7760
 1030SOL    HW2 3226   1.068   1.746   4.755 -1.5237 -1.5220 -0.6019
 1031SOL     OW 3227   1.608   4.940   2.399  1.1007 -0.4108  0.0311
 1031SOL    HW1 3228   1.612   4.867   2.461 -0.1227  1.7640  2.9009
 1031SOL    HW2 3229   1.689   4.989   2.414  1.1443 -0.2697 -0.6453
 1032SOL     OW 3230   1.290   2.833   2.517  0.2200  0.4537 -0.3765
 1032SOL    HW1 3231   1.285   2.738   2.523 -0.0916  0.5012  0.1322
 1032SOL    HW2 3232   1.213   2.865   2.563  0.3154  0.9547 -0.5530
 1033SOL     OW 3233   3.123   1.667   3.186 -0.6364 -0.0372  0.0779
 1033SOL    HW1 3234   3.143   1.753   3.222  0.6239  0.0476 -0.7711
 1033SOL    HW2 3235   3.188   1.609   3.225 -0.5411 -0.3130 -0.4822
 1034SOL     OW 3236   3.451   1.780   3.700  0.4855  0.2070 -0.7278
 1034SOL    HW1 3237   3.462   1.863   3.744  1.3940 -0.1474 -0.2656
 1034SOL    HW2 3238   3.514   1.782   3.627  0.9274 -0.2954 -0.3700
 1035SOL     OW 3239   1.885   0.031   4.904 -0.1848  0.1542  0.8203
 1035SOL    HW1 3240   1.846  -0.037   4.960  0.4740 -0.3478  0.6750
 1035SOL    HW2 3241   1.830   0.108   4.919 -0.6549 -0.2740  1.3525
 1036SOL     OW 3242   0.040   2.784   4.137 -0.2758 -0.3189 -0.1285
 1036SOL    HW1 3243  -0.031   2.821   4.084 -0.5773 -0.7459 -0.0317
 1036SOL    HW2 3244   0.017   2.805   4.227  0.9323  1.5933 -0.2282
 1037SOL     OW 3245   3.485   3.577   2.458 -0.1399 -0.0792 -0.6512
 1037SOL    HW1 3246   3.513   3.614   2.542  1.1257  0.5321 -1.3095
 1037SOL    HW2 3247   3.545   3.615   2.394 -0.0920 -1.7376 -1.6372
 1038SOL     OW 3248   4.570   1.341   4.428 -0.3518 -0.7425 -0.3872
 1038SOL    HW1 3249   4.632   1.323   4.498 -1.2759 -0.0043  0.6438
 1038SOL    HW2 3250   4.539   1.254   4.400  2.3605 -1.2899 -2.1405
 1039SOL     OW 3251   4.172   0.761   2.133  0.0655 -0.3060  0.2665
 1039SOL    HW1 3252   4.136   0.742   2.047  0.9873 -0.0336 -0.1943
 1039SOL    HW2 3253   4.249   0.705   2.140 -0.6858 -1.2395  1.4286
 1040SOL     OW 3254   3.786   4.897   0.273 -0.1465  0.8434  0.4033
 1040SOL    HW1 3255   3.736   4.850   0.206  1.0274  1.4282 -0.9480
 1040SOL    HW2 3256   3.722   4.918   0.341 -0.4572 -4.4375  2.2356
 1041SOL     OW 3257   2.762   0.222   2.252 -0.6008  0.2747  0.1930
 1041SOL    HW1 3258   2.723   0.304   2.224 -0.3173 -0.1194 -1.4326
 1041SOL    HW2 3259   2.716   0.199   2.333 -0.7572  1.9538  0.6076
 1042SOL     OW 3260   2.075   0.433   0.998  0.1512 -0.7977 -0.1606
 1042SOL    HW1 3261   2.095   0.388   1.080  1.8696  3.2147  1.9525
 1042SOL    HW2 3262   2.007   0.496   1.021 -1.1756 -1.2338 -2.5521
 1043SOL     OW 3263   1.369   0.670   1.595  0.5047  0.4046  0.5383
 1043SOL    HW1 3264   1.430   0.744   1.599  1.1646 -0.1348  0.5647
 1043SOL    HW2 3265   1.389   0.626   1.513  0.9459 -0.4408  1.0862
 1044SOL     OW 3266   2.823   1.776   4.591 -0.1553  0.6964 -0.1197
 1044SOL    HW1 3267   2.800   1.721   4.516 -2.2255 -0.0955  1.0154
 1044SOL    HW2 3268   2.800   1.865   4.564  0.5388  0.6361 -0.9471
 1045SOL     OW 3269   0.271   4.010   4.251  0.1630 -0.2240 -0.5673
 1045SOL    HW1 3270   0.195   3.977   4.298 -0.3297  0.5385 -0.8196
 1045SOL    HW2 3271   0.238   4.084   4.201  1.4374  1.3490  0.8044
 1046SOL     OW 3272   2.124   1.535   3.945  0.3297 -0.4050  0.2761
 1046SOL    HW1 3273   2.061   1.517   3.875  0.3862  0.2633  0.0410
 1046SOL    HW2 3274   2.153   1.449   3.975  0.0748 -0.6996 -0.3182
 1047SOL     OW 3275   0.957   3.452   4.443  0.1843 -0.7362 -0.0528
 1047SOL    HW1 3276   0.930   3.397   4.516  0.7128 -1.4217 -0.3543
 1047SOL    HW2 3277   0.959   3.392   4.368  0.9206 -0.3476 -0.3543
 1048SOL     OW 3278   0.729   2.013   1.712  0.2152 -0.1794 -0.5837
 1048SOL    HW1 3279   0.756   2.090   1.763 -1.5869  0.5597 -0.6935
 1048SOL    HW2 3280   0.642   1.992   1.745 -0.5739 -0.3282 -2.6339
 1049SOL     OW 3281   1.228   4.498   0.194 -0.0426  0.3095  0.1493
 1049SOL    HW1 3282   1.272   4.577   0.222  1.7712 -0.3885 -0.5788
 1049SOL    HW2 3283   1.168   4.476   0.266  1.0402  1.1193  1.3299
 1050SOL     OW 3284   3.619   4.825   1.875  0.1966 -0.4077 -0.4501
 1050SOL    HW1 3285   3.597   4.820   1.968 -1.2575  1.9111 -0.5769
 1050SOL    HW2 3286   3.673   4.904   1.868 -0.1362 -0.2671 -1.6179
 1051SOL     OW 3287   4.693   4.015   0.673 -0.0938 -0.3625 -0.0969
 1051SOL    HW1 3288   4.628   3.946   0.664  2.5443 -3.2807  1.0800
 1051SOL    HW2 3289   4.738   4.017   0.588 -1.5415  1.5948 -0.8861
 1052SOL     OW 3290   3.492   3.178   4.801  0.0927 -0.5869 -0.0798
 1052SOL    HW1 3291   3.442   3.146   4.876 -0.8570  1.1530  0.0853
 1052SOL    HW2 3292   3.470   3.118   4.730  0.3627 -1.7745  0.8219
 1053SOL     OW 3293   3.665   1.164   3.411 -0.1194  0.3197 -0.0201
 1053SOL    HW1 3294   3.645   1.082   3.457 -0.4902  0.2048 -0.3853
 1053SOL    HW2 3295   3.760   1.161   3.399 -0.0248  0.3020  0.6424
 1054SOL     OW 3296   1.588   3.026   0.475 -0.6078  0.1867 -0.0548
 1054SOL    HW1 3297   1.560   2.950   0.424  2.4125 -1.2309  0.2049
 1054SOL    HW2 3298   1.506   3.067   0.504 -2.3840 -1.1717 -2.7367
 1055SOL     OW 3299   2.225   1.905   4.616 -0.2183  0.0799 -0.0578
 1055SOL    HW1 3300   2.240   1.825   4.667 -0.6040 -0.0328 -0.1177
 1055SOL    HW2 3301   2.313   1.939   4.599 -0.0015 -0.7398 -0.6686
 1056SOL     OW 3302   3.206   0.623   1.504 -0.3804 -0.3455 -0.0149
 1056SOL    HW1 3303   3.134   0.579   1.460 -1.2312 -0.0855  1.0606
 1056SOL    HW2 3304   3.177   0.632   1.595  1.0606 -0.3442  0.4784
 1057SOL     OW 3305   4.754   2.126   4.984  0.4863  0.1554 -0.2541
 1057SOL    HW1 3306   4.739   2.150   4.893  0.6841  2.0782  0.1806
 1057SOL    HW2 3307   4.846   2.097   4.986  0.5112  0.2009 -0.6501
 1058SOL     OW 3308   3.222   1.268   2.388  0.1688 -1.1906  0.5389
 1058SOL    HW1 3309   3.272   1.203   2.437  1.0216 -1.4339 -0.6272
 1058SOL    HW2 3310   3.289   1.319   2.342 -0.5995 -0.7374 -0.0840
 1059SOL     OW 3311   0.069   4.845   3.686  0.1394  0.6262  0.1467
 1059SOL    HW1 3312   0.130   4.889   3.745 -1.3736 -0.9359  3.1008
 1059SOL    HW2 3313   0.103   4.756   3.678 -0.8490  0.2033  0.5188
 1060SOL     OW 3314   1.644   3.975   4.431 -0.1055 -0.1854  0.0940
 1060SOL    HW1 3315   1.670   3.931   4.511  0.8426  0.1751 -0.0031
 1060SOL    HW2 3316   1.548   3.966   4.429 -0.1840  0.0858  1.4301
 1061SOL     OW 3317   4.279   3.505   2.234  0.0711  0.2791  0.1655
 1061SOL    HW1 3318   4.363   3.546   2.210  0.7860 -0.9725  0.4399
 1061SOL    HW2 3319   4.302   3.414   2.255 -1.4273 -0.1988 -0.1564
 1062SOL     OW 3320   1.177   4.472   2.052  0.4372  0.0492  0.0750
 1062SOL    HW1 3321   1.224   4.397   2.016  0.3004  0.7580 -1.6634
 1062SOL    HW2 3322   1.239   4.512   2.113  1.2839 -0.2746 -0.5641
 1063SOL     OW 3323   1.963   3.225   1.304 -0.1747  0.1861  0.2567
 1063SOL    HW1 3324   2.047   3.179   1.309 -0.4249 -0.3705 -0.4270
 1063SOL    HW2 3325   1.963   3.283   1.380  0.1090 -1.0230  1.2242
 1064SOL     OW 3326   3.030   1.238   1.887 -0.2771  0.0635 -0.1271
 1064SOL    HW1 3327   2.996   1.202   1.969  1.2218 -1.4194 -0.0962
 1064SOL    HW2 3328   2.991   1.183   1.819 -0.3403  0.3252 -0.3026
 1065SOL     OW 3329   2.739   2.607   1.696 -0.3706  0.0198 -0.3388
 1065SOL    HW1 3330   2.767   2.522   1.730 -0.6765  0.1121  0.1692
 1065SOL    HW2 3331   2.819   2.659   1.689 -0.5694  1.2201  3.6963
 1066SOL     OW 3332   4.066   1.988   2.208 -0.1894  0.8311  0.4891
 1066SOL    HW1 3333   4.041   1.909   2.255 -0.6814  0.4179 -0.4466
 1066SOL    HW2 3334   4.002   1.996   2.137 -0.4719  2.3583  0.8655
 1067SOL     OW 3335   3.919   1.522   4.797  0.1390  0.1346 -0.3776
 1067SOL    HW1 3336   3.831   1.511   4.831  0.2455  1.7793  0.5538
 1067SOL    HW2 3337   3.924   1.462   4.722 -0.4792 -2.7600  1.7502
 1068SOL     OW 3338   2.596   4.819   1.031  0.1822 -0.3710  0.1823
 1068SOL    HW1 3339   2.560   4.792   1.115  0.0421  0.6037  0.4436
 1068SOL    HW2 3340   2.524   4.808   0.969  0.4928 -1.7687  0.0408
 1069SOL     OW 3341   0.739   4.534   3.376  0.2077  0.0600 -0.3278
 1069SOL    HW1 3342   0.716   4.566   3.289 -0.5983 -0.6575 -0.3800
 1069SOL    HW2 3343   0.833   4.514   3.370  0.7840  2.3852 -0.2889
 1070SOL     OW 3344   1.729   1.535   2.692 -0.2801 -0.8380  0.5665
 1070SOL    HW1 3345   1.818   1.552   2.723 -0.0310 -2.6069  0.9043
 1070SOL    HW2 3346   1.730   1.561   2.600  0.0935  0.7049  0.9754
 1071SOL     OW 3347   4.282   1.998   1.666  0.0663 -0.1959  0.3384
 1071SOL    HW1 3348   4.194   2.001   1.627  0.4692  0.6405 -0.5424
 1071SOL    HW2 3349   4.302   1.904   1.672  0.2382 -0.3918 -2.1248
 1072SOL     OW 3350   4.824   2.697   3.564  0.0230  0.3884 -0.3553
 1072SOL    HW1 3351   4.893   2.762   3.576  0.1579  0.0570  0.7571
 1072SOL    HW2 3352   4.866   2.628   3.512  0.8312 -0.2205  1.0414
 1073SOL     OW 3353   3.355   2.589   1.748 -0.0862 -0.1503 -0.1338
 1073SOL    HW1 3354   3.347   2.512   1.804 -0.3586 -0.3577 -0.4574
 1073SOL    HW2 3355   3.266   2.624   1.742 -0.7033 -1.9441 -2.9927
 1074SOL     OW 3356   0.774   3.427   3.242  0.3788  0.4859  0.4914
 1074SOL    HW1 3357   0.684   3.459   3.242 -0.1647 -0.9419  0.1229
 1074SOL    HW2 3358   0.809   3.452   3.157  0.0214  0.2746  0.2797
 1075SOL     OW 3359   4.866   0.215   3.217  0.0846  0.0173 -0.4428
 1075SOL    HW1 3360   4.946   0.260   3.191 -0.0411 -0.6292 -2.0221
 1075SOL    HW2 3361   4.888   0.173   3.300  1.3744 -0.1430 -0.8516
 1076SOL     OW 3362   0.196   1.320   2.429  0.4212 -0.4544  0.1384
 1076SOL    HW1 3363   0.176   1.407   2.395 -1.6083  0.1973  2.6254
 1076SOL    HW2 3364   0.182   1.261   2.356  0.2603  1.1598 -1.1865
 1077SOL     OW 3365   1.248   0.733   4.633 -0.4517 -0.3583  0.0338
 1077SOL    HW1 3366   1.274   0.645   4.605  0.0542 -0.3898  0.5826
 1077SOL    HW2 3367   1.173   0.754   4.578  0.8125 -0.2180 -1.7470
 1078SOL     OW 3368   4.872   2.105   2.658  0.3077 -0.7035 -0.3958
 1078SOL    HW1 3369   4.851   2.067   2.573 -0.6759  2.0274 -1.4799
 1078SOL    HW2 3370   4.787   2.109   2.703  0.2536  0.8286 -0.6081
 1079SOL     OW 3371   0.945   3.242   4.243  0.5425 -0.4860  0.1136
 1079SOL    HW1 3372   0.986   3.164   4.206  3.3150  0.3586  1.1965
 1079SOL    HW2 3373   0.872   3.261   4.183  2.7136 -1.1240 -2.9834
 1080SOL     OW 3374   0.067   1.447   4.397  0.2821 -0.3666  0.2071
 1080SOL    HW1 3375   0.011   1.453   4.475  0.5957 -0.9773  0.4838
 1080SOL    HW2 3376   0.105   1.359   4.402 -1.8159 -1.5217 -2.0739
 1081SOL     OW 3377   1.090   0.923   4.378  0.3543 -0.2704 -0.1425
 1081SOL    HW1 3378   1.095   0.832   4.405  2.0464  0.2196  1.4911
 1081SOL    HW2 3379   1.181   0.947   4.359 -0.1648  0.8548 -1.3772
 1082SOL     OW 3380   1.524   2.986   3.504 -0.0878  0.2198  0.2821
 1082SOL    HW1 3381   1.458   3.021   3.564 -0.9908 -1.3967  0.3008
 1082SOL    HW2 3382   1.526   3.049   3.431 -2.2039 -0.0364 -0.0648
 1083SOL     OW 3383   1.816   1.463   0.479 -0.5743 -0.1499  0.0056
 1083SOL    HW1 3384   1.799   1.480   0.386 -1.5490 -1.2177 -0.0478
 1083SOL    HW2 3385   1.747   1.511   0.525 -1.1198 -0.9473  0.0544
 1084SOL     OW 3386   2.116   0.396   2.819 -0.7048  0.2443  0.3667
 1084SOL    HW1 3387   2.138   0.321   2.874 -0.9866 -0.6325 -0.7104
 1084SOL    HW2 3388   2.120   0.363   2.730  1.3022  2.0133 -0.2981
 1085SOL     OW 3389   0.417   4.846   0.861  0.3777  0.1054 -0.2023
 1085SOL    HW1 3390   0.469   4.924   0.878 -1.4819  1.3041  0.1412
 1085SOL    HW2 3391   0.392   4.813   0.947  0.4200 -0.3754 -0.3676
 1086SOL     OW 3392   0.612   3.213   4.496 -0.0710 -0.0372 -0.4609
 1086SOL    HW1 3393   0.647   3.272   4.562  0.0586  1.9509 -2.2121
 1086SOL    HW2 3394   0.571   3.270   4.431 -0.2659 -1.8941 -2.0811
 1087SOL     OW 3395   0.696   1.753   4.405 -0.1037  0.7215  0.1183
 1087SOL    HW1 3396   0.663   1.706   4.481  0.1726  2.0586  1.1179
 1087SOL    HW2 3397   0.622   1.757   4.345 -1.1602  1.7825  1.3958
 1088SOL     OW 3398   2.500   3.709   2.394 -0.2889 -0.1650 -0.2964
 1088SOL    HW1 3399   2.562   3.663   2.338 -1.1110 -1.7408  0.0328
 1088SOL    HW2 3400   2.549   3.784   2.429  1.5096 -1.5327  0.2221
 1089SOL     OW 3401   0.458   1.753   0.714  0.1810 -0.0599 -0.1978
 1089SOL    HW1 3402   0.488   1.796   0.794  1.3494  1.8693 -1.5885
 1089SOL    HW2 3403   0.530   1.694   0.690 -0.3365 -0.9354  0.3465
 1090SOL     OW 3404   2.857   3.194   2.796 -0.4168  0.8476 -0.2673
 1090SOL    HW1 3405   2.912   3.121   2.825 -0.1574  1.4193  0.7241
 1090SOL    HW2 3406   2.918   3.264   2.776 -0.7584  1.4832  0.8304
 1091SOL     OW 3407   1.884   0.952   3.041  0.3273  0.5768  0.4145
 1091SOL    HW1 3408   1.862   0.942   3.134 -1.0710  0.2400  0.0669
 1091SOL    HW2 3409   1.945   0.881   3.023 -0.2735 -0.0567  0.8149
 1092SOL     OW 3410   4.501   1.515   0.583  0.2350 -0.0927  1.0003
 1092SOL    HW1 3411   4.486   1.573   0.508 -1.4316 -1.8561 -0.1252
 1092SOL    HW2 3412   4.579   1.464   0.560 -0.0345 -0.3431  0.6290
 1093SOL     OW 3413   0.936   1.431   1.892  0.7010  0.6417  0.8629
 1093SOL    HW1 3414   0.978   1.427   1.806 -1.1065 -1.6151 -0.0446
 1093SOL    HW2 3415   0.889   1.515   1.891  0.2405  0.4153 -0.6498
 1094SOL     OW 3416   0.704   1.275   0.206 -0.3141  0.3006 -0.2149
 1094SOL    HW1 3417   0.712   1.341   0.137  0.4048 -0.3317 -0.7543
 1094SOL    HW2 3418   0.619   1.233   0.189  0.1486 -0.2965 -1.1361
 1095SOL     OW 3419   1.841   4.787   4.039 -0.2481  0.4237  0.4830
 1095SOL    HW1 3420   1.858   4.832   4.122 -2.2491 -0.2811  1.3403
 1095SOL    HW2 3421   1.770   4.837   3.999  1.5836  1.5715 -1.5339
 1096SOL     OW 3422   4.825   4.874   0.701 -0.2039  0.1005  0.2623
 1096SOL    HW1 3423   4.893   4.930   0.739 -0.4482 -0.4994  1.6673
 1096SOL    HW2 3424   4.789   4.925   0.629 -0.5723  1.8684  1.6384
 1097SOL     OW 3425   3.662   0.670   3.321  0.4247 -0.2403 -0.3500
 1097SOL    HW1 3426   3.577   0.627   3.325  0.0437  0.4163  4.0221
 1097SOL    HW2 3427   3.726   0.600   3.332  0.2084 -0.4099 -0.1637
 1098SOL     OW 3428   1.139   3.004   3.816  0.6109  0.5291 -0.4263
 1098SOL    HW1 3429   1.101   2.917   3.829 -1.3714  1.0453 -2.2986
 1098SOL    HW2 3430   1.114   3.053   3.894  1.4013 -0.4176  0.4546
 1099SOL     OW 3431   3.167   2.816   2.479  0.0479 -0.1033  0.3378
 1099SOL    HW1 3432   3.101   2.876   2.443  0.0414 -0.9863 -1.1931
 1099SOL    HW2 3433   3.235   2.874   2.514  1.0683  0.8954 -2.9693
 1100SOL     OW 3434   4.700   3.392   3.648 -0.4760 -0.8234  0.4335
 1100SOL    HW1 3435   4.770   3.358   3.592 -1.0625  1.1386 -1.6952
 1100SOL    HW2 3436   4.626   3.334   3.631 -1.3534  0.9469 -2.8513
 1101SOL     OW 3437   4.405   0.224   0.507  0.2541 -1.0060 -0.0374
 1101SOL    HW1 3438   4.315   0.253   0.492  1.6828  2.6236 -3.2154
 1101SOL    HW2 3439   4.431   0.269   0.588 -1.1855 -3.6870  2.0921
 1102SOL     OW 3440   0.140   3.336   4.445  0.4271  0.1615  0.0273
 1102SOL    HW1 3441   0.179   3.275   4.508 -1.4272  1.5577  2.7106
 1102SOL    HW2 3442   0.112   3.410   4.498 -2.3859  0.9118 -2.2854
 1103SOL     OW 3443   4.454   3.102   1.784 -0.1584  0.0369  0.3740
 1103SOL    HW1 3444   4.525   3.047   1.816  0.2878  0.2502 -0.2133
 1103SOL    HW2 3445   4.386   3.041   1.756 -0.4499 -0.1536  1.4753
 1104SOL     OW 3446   0.218   2.676   0.195 -0.3895 -0.3086  0.0205
 1104SOL    HW1 3447   0.281   2.610   0.221 -0.4605  0.4021  2.2092
 1104SOL    HW2 3448   0.270   2.748   0.159  0.0611  0.1165  1.4647
 1105SOL     OW 3449   3.339   1.767   0.410  0.1538 -0.0890 -0.1719
 1105SOL    HW1 3450   3.360   1.858   0.391  1.8722 -0.3602  0.3330
 1105SOL    HW2 3451   3.264   1.748   0.354 -1.7179  2.2732  1.3180
 1106SOL     OW 3452   1.453   0.773   2.715 -0.8445  0.3137  0.4387
 1106SOL    HW1 3453   1.505   0.822   2.778  0.8570 -2.0702  0.9928
 1106SOL    HW2 3454   1.376   0.829   2.699 -0.9739  1.3702  3.9907
 1107SOL     OW 3455   2.852   2.520   3.259  0.3582  0.1231 -0.3788
 1107SOL    HW1 3456   2.928   2.482   3.215  0.2612  1.0218 -1.3743
 1107SOL    HW2 3457   2.784   2.452   3.254  1.3769 -1.1182  1.4902
 1108SOL     OW 3458   4.148   1.711   2.080 -0.1383  0.6573 -0.2475
 1108SOL    HW1 3459   4.058   1.684   2.099  0.0934 -0.7447 -0.9741
 1108SOL    HW2 3460   4.201   1.666   2.145 -0.0640  2.9394  1.3703
 1109SOL     OW 3461   3.546   2.118   4.955  0.4060  0.1293  0.6557
 1109SOL    HW1 3462   3.492   2.112   4.876  0.1596  2.1640  0.6005
 1109SOL    HW2 3463   3.636   2.117   4.922  0.3077  2.6768  0.0876
 1110SOL     OW 3464   1.268   0.161   2.678 -0.0406  0.4435  0.3137
 1110SOL    HW1 3465   1.174   0.143   2.669  0.2235 -2.4573  2.1721
 1110SOL    HW2 3466   1.286   0.228   2.612 -3.2934  0.7337 -0.4394
 1111SOL     OW 3467   1.254   3.878   1.414 -0.1064  0.5568 -0.0596
 1111SOL    HW1 3468   1.201   3.817   1.465 -0.4063  0.6483 -0.2643
 1111SOL    HW2 3469   1.313   3.918   1.478 -0.9845  1.2228  0.3484
 1112SOL     OW 3470   3.728   4.064   4.478 -0.2296  0.3597 -0.0855
 1112SOL    HW1 3471   3.754   3.972   4.467  0.0355  0.3394  0.6354
 1112SOL    HW2 3472   3.657   4.076   4.416 -0.2451 -0.3295 -0.2145
 1113SOL     OW 3473   4.390   2.073   1.227 -0.3493  0.5018  0.1052
 1113SOL    HW1 3474   4.445   2.018   1.283  0.6401 -0.6866 -1.9277
 1113SOL    HW2 3475   4.451   2.136   1.188 -0.7082  0.1959 -0.9574
 1114SOL     OW 3476   1.476   4.280   0.550 -0.2699 -0.1315 -0.6133
 1114SOL    HW1 3477   1.531   4.274   0.628  1.6118  1.1918 -1.7377
 1114SOL    HW2 3478   1.432   4.364   0.558  0.0927  0.1059 -1.0518
 1115SOL     OW 3479   4.246   0.651   2.901 -0.4638  0.2307  0.3092
 1115SOL    HW1 3480   4.318   0.669   2.962 -0.2933  0.0301  0.1691
 1115SOL    HW2 3481   4.174   0.706   2.932 -0.0020  1.0372 -0.0265
 1116SOL     OW 3482   2.952   3.085   1.557  0.2448 -0.4937  0.4998
 1116SOL    HW1 3483   2.934   3.176   1.580  0.6098 -0.7405  1.8387
 1116SOL    HW2 3484   3.025   3.089   1.495  0.7533  0.0962  1.1283
 1117SOL     OW 3485   1.540   4.536   0.192  0.1579  0.0510 -0.7256
 1117SOL    HW1 3486   1.617   4.579   0.229 -0.3479  0.8381 -0.5729
 1117SOL    HW2 3487   1.466   4.573   0.240 -0.2622 -1.3175 -0.2792
 1118SOL     OW 3488   2.373   3.391   4.415 -0.1826  0.3527 -0.2322
 1118SOL    HW1 3489   2.429   3.314   4.407  1.0799  1.1843  0.2357
 1118SOL    HW2 3490   2.431   3.458   4.451 -1.0257  1.7621 -1.4109
 1119SOL     OW 3491   1.457   3.649   1.769  0.0280  0.0859 -0.1022
 1119SOL    HW1 3492   1.492   3.573   1.816 -0.9097  0.7058  1.7402
 1119SOL    HW2 3493   1.495   3.645   1.682  0.2889 -2.2813  0.0813
 1120SOL     OW 3494   2.508   3.504   3.779 -0.4096 -0.3596 -0.0932
 1120SOL    HW1 3495   2.548   3.421   3.753  2.2434  0.9830 -0.5835
 1120SOL    HW2 3496   2.423   3.479   3.816 -0.8066 -3.0595 -2.4821
 1121SOL     OW 3497   4.698   0.962   3.824  0.1093  0.0554  0.1455
 1121SOL    HW1 3498   4.731   1.040   3.778 -0.7738  0.9822  1.0270
 1121SOL    HW2 3499   4.776   0.917   3.854  0.6653  0.1323 -1.0999
 1122SOL     OW 3500   2.199   1.608   4.399  0.2091 -0.1493 -1.1004
 1122SOL    HW1 3501   2.195   1.687   4.345 -0.8282  0.8255  0.3383
 1122SOL    HW2 3502   2.293   1.594   4.413  0.4024  2.2289  0.5262
 1123SOL     OW 3503   2.517   4.232   1.948  0.6316 -0.4701 -0.5053
 1123SOL    HW1 3504   2.455   4.160   1.960 -1.6859  1.5213  0.5001
 1123SOL    HW2 3505   2.503   4.260   1.858 -0.4190  0.3341 -0.1124
 1124SOL     OW 3506   4.932   3.992   3.755  0.0614  0.0920  0.0748
 1124SOL    HW1 3507   4.871   3.977   3.826  1.0802 -0.0936  0.9270
 1124SOL    HW2 3508   5.018   3.994   3.796  0.7782 -1.0312 -1.2745
 1125SOL     OW 3509   3.194   3.442   0.879  0.8401 -0.4259 -0.2521
 1125SOL    HW1 3510   3.241   3.492   0.812  1.2163  0.2018  0.4604
 1125SOL    HW2 3511   3.102   3.467   0.866  1.0215  0.4647  0.0867
 1126SOL     OW 3512   4.594   0.470   4.353  0.0240  0.4046  0.5142
 1126SOL    HW1 3513   4.604   0.379   4.383 -0.2592 -1.1497 -3.5390
 1126SOL    HW2 3514   4.502   0.478   4.330  0.0876  1.6867  0.6377
 1127SOL     OW 3515   4.974   1.192   2.921 -0.2094  0.2268 -0.2231
 1127SOL    HW1 3516   5.023   1.274   2.934  0.9227 -0.2730 -1.2032
 1127SOL    HW2 3517   4.998   1.163   2.833 -0.6465 -1.1358  0.0838
 1128SOL     OW 3518   1.914   2.604   1.867  0.7389  0.1707 -0.1859
 1128SOL    HW1 3519   1.909   2.700   1.857  0.6660  0.0172 -2.1011
 1128SOL    HW2 3520   1.949   2.574   1.783 -3.2370 -1.7891 -1.3961
 1129SOL     OW 3521   4.133   0.711   4.896 -0.0252  0.0380  0.3284
 1129SOL    HW1 3522   4.190   0.785   4.917  1.0242 -0.9175  0.9233
 1129SOL    HW2 3523   4.077   0.701   4.973 -0.7986  0.7847 -0.1306
 1130SOL     OW 3524   2.447   0.775   4.410  0.1087 -0.5110 -0.1469
 1130SOL    HW1 3525   2.433   0.806   4.321  1.3881 -0.8636 -0.4879
 1130SOL    HW2 3526   2.505   0.700   4.401  1.8782  0.6277  1.1005
 1131SOL     OW 3527   0.744   3.132   3.874 -0.2936 -0.6695 -0.0532
 1131SOL    HW1 3528   0.794   3.173   3.804 -2.8533  0.3200 -1.4334
 1131SOL    HW2 3529   0.741   3.040   3.851  1.2022 -0.8307  0.3033
 1132SOL     OW 3530   1.052   1.285   4.182  0.0421  0.8005  0.0690
 1132SOL    HW1 3531   0.981   1.252   4.127 -0.3665  2.3758 -0.3807
 1132SOL    HW2 3532   1.030   1.253   4.270  0.6140 -1.5840 -0.5915
 1133SOL     OW 3533   2.354   2.003   4.242  0.1884  0.3203 -0.2456
 1133SOL    HW1 3534   2.264   1.972   4.258 -0.4292  1.3559 -1.5049
 1133SOL    HW2 3535   2.362   2.002   4.147  1.2896  0.8948 -0.1662
 1134SOL     OW 3536   1.658   3.244   2.159  0.5852 -0.0591  0.0061
 1134SOL    HW1 3537   1.583   3.187   2.142  0.0131  0.6760  0.0099
 1134SOL    HW2 3538   1.716   3.192   2.215 -0.4593 -0.2515  0.9492
 1135SOL     OW 3539   2.109   4.399   2.490 -0.5364  0.4598 -0.1308
 1135SOL    HW1 3540   2.039   4.463   2.494 -0.4647  0.5926 -0.9354
 1135SOL    HW2 3541   2.077   4.325   2.542 -0.0349  1.6755  2.0529
 1136SOL     OW 3542   4.478   4.225   2.321  0.2316  0.3889 -0.1041
 1136SOL    HW1 3543   4.502   4.263   2.406 -0.9980 -1.3527  1.1031
 1136SOL    HW2 3544   4.389   4.256   2.305 -1.2784 -2.6190  1.4865
 1137SOL     OW 3545  -0.011   0.255   2.861  0.2057  0.0675  0.1621
 1137SOL    HW1 3546   0.029   0.234   2.945 -0.1669  1.6570  0.7682
 1137SOL    HW2 3547   0.050   0.315   2.819  0.8310 -1.4010 -1.1511
 1138SOL     OW 3548   4.199   2.228   4.159  0.8099  0.4068  0.0033
 1138SOL    HW1 3549   4.155   2.288   4.220  0.8306  1.1868 -0.7411
 1138SOL    HW2 3550   4.159   2.246   4.074  0.7894 -0.6713 -0.2243
 1139SOL     OW 3551   2.340   0.613   0.247  0.6691 -0.9970 -0.6399
 1139SOL    HW1 3552   2.261   0.624   0.299  1.6170 -2.1195  1.1413
 1139SOL    HW2 3553   2.315   0.557   0.174 -0.6621  0.5029 -1.3905
 1140SOL     OW 3554   1.165   3.823   2.540  0.1468 -0.6809  0.3227
 1140SOL    HW1 3555   1.258   3.821   2.519  0.2830 -1.7974  0.9898
 1140SOL    HW2 3556   1.159   3.786   2.628 -0.8101  0.4801  0.7892
 1141SOL     OW 3557   0.965   0.825   3.890 -0.4192  0.1650 -0.1569
 1141SOL    HW1 3558   0.914   0.814   3.971 -1.9916  1.8146 -0.8610
 1141SOL    HW2 3559   1.014   0.906   3.904  0.0177 -0.0313 -0.5246
 1142SOL     OW 3560   2.331   3.088   4.032 -0.1855  0.0951  0.2495
 1142SOL    HW1 3561   2.404   3.032   4.006  0.3643  1.2563 -0.8028
 1142SOL    HW2 3562   2.253   3.033   4.016  0.4113 -1.7497  2.9096
 1143SOL     OW 3563   2.588   1.288   3.556 -0.2452  0.1495 -0.3673
 1143SOL    HW1 3564   2.616   1.356   3.617  1.1577  1.1119 -1.9725
 1143SOL    HW2 3565   2.628   1.208   3.588 -0.1943  0.4759  0.4035
 1144SOL     OW 3566   0.723   4.054   2.121 -0.1946  0.0017 -0.3249
 1144SOL    HW1 3567   0.637   4.027   2.151  0.1350 -1.1002 -0.3275
 1144SOL    HW2 3568   0.755   4.113   2.189  1.5198 -4.1558  2.9451
 1145SOL     OW 3569   0.458   4.266   1.392 -0.0203  0.3089 -0.4713
 1145SOL    HW1 3570   0.413   4.238   1.472  0.7821 -0.7340 -0.3670
 1145SOL    HW2 3571   0.415   4.348   1.368  0.7318  1.4728  1.8803
 1146SOL     OW 3572   1.306   4.583   1.429 -0.9701 -0.1810 -0.2419
 1146SOL    HW1 3573   1.373   4.642   1.464  0.3051 -0.8602 -1.4524
 1146SOL    HW2 3574   1.348   4.497   1.428 -2.8372 -1.2148  1.6275
 1147SOL     OW 3575   3.322   4.318   0.868 -0.0316 -0.2756  0.3724
 1147SOL    HW1 3576   3.413   4.289   0.871  1.1744  2.8335 -1.5306
 1147SOL    HW2 3577   3.293   4.296   0.780 -0.8603 -0.4579  0.6810
 1148SOL     OW 3578   1.767   4.940   1.428 -0.7145 -0.4178 -0.3921
 1148SOL    HW1 3579   1.793   5.014   1.373 -1.5853 -1.4354 -2.2606
 1148SOL    HW2 3580   1.673   4.931   1.412 -1.1240 -0.4141  1.7394
 1149SOL     OW 3581   3.505   2.505   2.696  0.0139  0.1861  0.3826
 1149SOL    HW1 3582   3.544   2.560   2.763 -0.9035  1.7723 -0.3363
 1149SOL    HW2 3583   3.559   2.519   2.618 -1.2994  1.5597 -0.3168
 1150SOL     OW 3584   2.343   3.817   4.374  0.3303  0.1079  0.9212
 1150SOL    HW1 3585   2.265   3.765   4.352  0.6426 -0.6036  1.4736
 1150SOL    HW2 3586   2.331   3.840   4.466  0.2769  0.8833  0.7237
 1151SOL     OW 3587   1.328   2.043   0.543  0.2609 -0.4430 -0.4841
 1151SOL    HW1 3588   1.363   1.956   0.521  1.0673  0.2651 -2.1502
 1151SOL    HW2 3589   1.361   2.100   0.474 -1.1641  0.9950 -0.0302
 1152SOL     OW 3590   0.516   4.274   0.465  0.4494 -0.3545 -0.3276
 1152SOL    HW1 3591   0.529   4.185   0.430 -0.6997 -1.2036  1.2564
 1152SOL    HW2 3592   0.524   4.263   0.560  0.3706  1.2597 -0.1203
 1153SOL     OW 3593   3.523   0.458   4.929  0.2942 -0.2469 -0.7558
 1153SOL    HW1 3594   3.499   0.551   4.927 -1.1688 -0.5559  0.5950
 1153SOL    HW2 3595   3.596   0.454   4.990 -0.4058 -0.1222  0.1048
 1154SOL     OW 3596   4.935   0.564   0.377 -0.2490 -0.1199 -0.4679
 1154SOL    HW1 3597   5.016   0.600   0.412 -0.5162  1.1170 -1.0378
 1154SOL    HW2 3598   4.871   0.635   0.388 -0.9587 -0.6455 -1.0681
 1155SOL     OW 3599   1.604   2.426   1.762 -0.2006 -0.3057  0.2583
 1155SOL    HW1 3600   1.584   2.475   1.683 -1.1531 -0.4395  0.4073
 1155SOL    HW2 3601   1.615   2.335   1.732  4.1449  0.2252 -0.4493
 1156SOL     OW 3602   2.115   0.886   2.197 -0.8876  0.3003 -0.4813
 1156SOL    HW1 3603   2.134   0.899   2.290 -1.9304 -0.9655 -0.0524
 1156SOL    HW2 3604   2.141   0.968   2.155 -1.4957  1.3506  1.0942
 1157SOL     OW 3605   1.428   2.780   4.402  0.5808 -0.8513 -0.3207
 1157SOL    HW1 3606   1.466   2.842   4.339  0.5607 -0.7339 -0.2182
 1157SOL    HW2 3607   1.503   2.734   4.438  0.7925  0.5095  1.0783
 1158SOL     OW 3608   3.912   2.189   0.432 -0.4594  0.1078 -0.2046
 1158SOL    HW1 3609   4.006   2.193   0.416 -0.8720  1.9505 -3.0691
 1158SOL    HW2 3610   3.885   2.103   0.400  0.1198  0.0013 -0.4028
 1159SOL     OW 3611   2.139   1.628   2.261 -0.5442  0.6776  0.0343
 1159SOL    HW1 3612   2.147   1.653   2.353 -0.2012 -0.1489  0.2348
 1159SOL    HW2 3613   2.226   1.643   2.225 -0.6906  1.0419 -0.1661
 1160SOL     OW 3614   2.066   3.282   1.987  0.3274 -0.1743 -0.1779
 1160SOL    HW1 3615   1.972   3.264   1.981 -0.0375  1.5746 -0.2141
 1160SOL    HW2 3616   2.091   3.251   2.074  0.4707 -3.6053 -1.2957
 1161SOL     OW 3617   2.269   1.320   0.513 -0.5418 -0.1663 -0.0342
 1161SOL    HW1 3618   2.268   1.333   0.607  2.5875 -0.2831  0.1196
 1161SOL    HW2 3619   2.289   1.406   0.477  1.6400 -0.7334 -0.3014
 1162SOL     OW 3620   4.459   4.355   3.772  0.3478  0.0345 -0.5844
 1162SOL    HW1 3621   4.543   4.362   3.818  0.9072 -0.0858 -1.5656
 1162SOL    HW2 3622   4.433   4.264   3.783 -0.0933  0.2613  0.4351
 1163SOL     OW 3623   4.719   1.497   3.356  0.5315 -0.1213  0.3315
 1163SOL    HW1 3624   4.729   1.542   3.271  0.2091 -0.2313  0.2337
 1163SOL    HW2 3625   4.645   1.438   3.343  1.7143 -1.5929  0.0810
 1164SOL     OW 3626   4.105   2.579   0.042  0.2422  0.1587 -0.1435
 1164SOL    HW1 3627   4.017   2.605   0.013  1.2665  0.4909 -3.2834
 1164SOL    HW2 3628   4.097   2.486   0.062 -0.7871  0.1358 -0.5730
 1165SOL     OW 3629   1.744   0.395   1.853 -0.1509  0.1817 -0.6119
 1165SOL    HW1 3630   1.753   0.450   1.775  0.1554  0.0132 -0.6964
 1165SOL    HW2 3631   1.656   0.359   1.847 -0.4859  0.9429 -0.3723
 1166SOL     OW 3632   2.641   0.583   4.423 -0.0460  0.6376 -0.0592
 1166SOL    HW1 3633   2.703   0.510   4.421 -0.4925  0.1696  1.6441
 1166SOL    HW2 3634   2.695   0.660   4.438  0.3109  0.4908 -0.5779
 1167SOL     OW 3635   2.529   3.231   4.217  0.3482 -0.0239  0.1398
 1167SOL    HW1 3636   2.551   3.307   4.163 -0.5002  1.0945  1.3365
 1167SOL    HW2 3637   2.449   3.196   4.177  2.2822 -2.2064 -2.2698
 1168SOL     OW 3638   3.347   2.112   1.353 -0.2157  0.7526 -0.6465
 1168SOL    HW1 3639   3.347   2.018   1.370 -1.8097  0.7149 -0.7033
 1168SOL    HW2 3640   3.401   2.149   1.424 -0.2392 -0.1219 -0.1562
 1169SOL     OW 3641   1.144   3.544   4.624  0.4312  0.5447 -0.7389
 1169SOL    HW1 3642   1.060   3.540   4.577 -1.8582 -2.2024  2.9961
 1169SOL    HW2 3643   1.189   3.463   4.601 -1.0567 -1.2165  1.9582
 1170SOL     OW 3644   0.652   4.242   3.269 -0.4329 -0.2420 -0.3035
 1170SOL    HW1 3645   0.662   4.214   3.360  1.4312 -0.6750 -0.6129
 1170SOL    HW2 3646   0.570   4.291   3.269 -0.3076  0.0665  1.6741
 1171SOL     OW 3647   1.313   2.548   2.553 -0.9212  1.5315 -0.1624
 1171SOL    HW1 3648   1.387   2.524   2.609  0.1815  1.5579 -1.5525
 1171SOL    HW2 3649   1.236   2.516   2.600  0.1682 -1.0149  0.0629
 1172SOL     OW 3650   3.539   1.986   2.782  0.4347  0.1840  0.0400
 1172SOL    HW1 3651   3.603   2.048   2.748  1.6335 -0.9823  0.1215
 1172SOL    HW2 3652   3.471   1.982   2.713  2.3348 -1.4163 -1.8824
 1173SOL     OW 3653   3.638   3.703   1.833 -0.0172 -0.5119  0.2595
 1173SOL    HW1 3654   3.710   3.731   1.890  1.6069 -0.2254 -1.8057
 1173SOL    HW2 3655   3.581   3.779   1.826  0.4504 -0.1405  0.4935
 1174SOL     OW 3656   3.064   4.546   4.615 -0.1984  0.4237  0.2768
 1174SOL    HW1 3657   3.070   4.487   4.540 -0.9654  0.1758  0.4029
 1174SOL    HW2 3658   3.037   4.490   4.687  0.9765  0.5780  0.8581
 1175SOL     OW 3659   1.163   4.703   1.237  0.2957  0.3704  0.4560
 1175SOL    HW1 3660   1.223   4.654   1.293  1.4402  1.6037  0.3624
 1175SOL    HW2 3661   1.076   4.685   1.273  0.9108  0.3137  1.9928
 1176SOL     OW 3662   0.740   3.317   4.075  0.1289 -0.6802 -0.5710
 1176SOL    HW1 3663   0.730   3.259   4.000 -0.4946  0.3298 -1.3021
 1176SOL    HW2 3664   0.657   3.365   4.079 -0.8318 -2.3139  2.1915
 1177SOL     OW 3665   4.567   0.218   1.763  0.1606  0.3135 -0.7277
 1177SOL    HW1 3666   4.616   0.192   1.685 -0.4687  1.3101 -1.4838
 1177SOL    HW2 3667   4.566   0.314   1.760 -0.4691  0.3489  0.1256
 1178SOL     OW 3668   4.736   1.831   0.356  0.6156 -0.3446  0.8717
 1178SOL    HW1 3669   4.688   1.810   0.436 -1.3125  1.3687  0.2469
 1178SOL    HW2 3670   4.755   1.747   0.316 -1.7354 -1.1160  1.2600
 1179SOL     OW 3671   3.337   2.031   4.297 -0.1700  0.1395 -0.0950
 1179SOL    HW1 3672   3.366   2.118   4.324  1.7227 -1.1378  2.4664
 1179SOL    HW2 3673   3.258   2.015   4.349  0.6224 -0.3793  0.9982
 1180SOL     OW 3674   1.914   2.524   3.835  0.2093 -0.9064 -0.0325
 1180SOL    HW1 3675   1.912   2.456   3.902  0.3582 -0.4003  0.4932
 1180SOL    HW2 3676   1.837   2.578   3.853  1.3037  0.3669  0.9464
 1181SOL     OW 3677   1.694   2.660   3.848  0.3187 -0.1703  0.1056
 1181SOL    HW1 3678   1.614   2.714   3.846  0.0807 -0.4768  1.0248
 1181SOL    HW2 3679   1.662   2.570   3.850  0.7157 -0.4464 -2.4720
 1182SOL     OW 3680   2.436   1.877   0.743 -0.6657 -0.0241 -0.3208
 1182SOL    HW1 3681   2.509   1.832   0.701 -1.4942 -0.0297 -1.8253
 1182SOL    HW2 3682   2.366   1.812   0.746 -0.7154  0.0620  0.8533
 1183SOL     OW 3683   4.903   1.925   2.269  0.1212  0.0965  0.3715
 1183SOL    HW1 3684   4.986   1.901   2.228 -0.6489  0.3372 -1.4010
 1183SOL    HW2 3685   4.885   1.854   2.331  1.6462  0.0671  0.8168
 1184SOL     OW 3686   1.834   4.533   2.531 -0.1428 -0.3286  0.4938
 1184SOL    HW1 3687   1.875   4.534   2.617  0.1926  0.3347  0.3373
 1184SOL    HW2 3688   1.764   4.599   2.536  0.8539  0.8173 -0.1855
 1185SOL     OW 3689   4.735   1.724   1.273 -0.0362  0.1859  0.0725
 1185SOL    HW1 3690   4.827   1.737   1.248 -0.4600  0.4028 -1.4330
 1185SOL    HW2 3691   4.702   1.812   1.290 -0.3105  0.2397 -0.6955
 1186SOL     OW 3692   4.373   4.742   0.290  0.0716 -0.3759  0.1908
 1186SOL    HW1 3693   4.407   4.809   0.349 -1.5765  0.6022  0.0570
 1186SOL    HW2 3694   4.318   4.687   0.345  0.4359 -0.9108  0.0365
 1187SOL     OW 3695   3.162   3.649   4.759 -0.1118 -0.3182 -0.2075
 1187SOL    HW1 3696   3.185   3.644   4.852  1.2499  3.0715 -0.2233
 1187SOL    HW2 3697   3.226   3.593   4.715  0.1912 -0.7372  0.7548
 1188SOL     OW 3698   0.942   4.570   1.611 -0.3341 -0.0522 -1.0244
 1188SOL    HW1 3699   0.976   4.513   1.543 -3.7265 -1.9080 -1.3698
 1188SOL    HW2 3700   0.947   4.518   1.691  0.5468  0.8800 -0.4407
 1189SOL     OW 3701   0.445   3.726   0.865  0.0793  0.3389  0.8300
 1189SOL    HW1 3702   0.363   3.677   0.857  0.6324 -0.6871  1.2406
 1189SOL    HW2 3703   0.418   3.814   0.889 -0.8911 -0.0509  1.2155
 1190SOL     OW 3704   2.086   4.123   3.123  0.1149 -0.3145  0.3069
 1190SOL    HW1 3705   2.093   4.028   3.128  1.2243 -0.2489  0.3066
 1190SOL    HW2 3706   2.035   4.148   3.200 -0.4788 -0.9287  0.1216
 1191SOL     OW 3707   2.880   4.265   2.064  0.3374  0.3711 -0.5840
 1191SOL    HW1 3708   2.847   4.268   1.974 -0.3171 -1.7363 -0.4645
 1191SOL    HW2 3709   2.863   4.175   2.093  1.2523  0.7804  1.3855
 1192SOL     OW 3710   4.968   4.058   1.706 -0.3193  0.2423  0.6365
 1192SOL    HW1 3711   4.893   4.109   1.675  0.2439  0.8189  0.2038
 1192SOL    HW2 3712   5.004   4.111   1.778  0.1080  0.3284  0.3615
 1193SOL     OW 3713   4.780   0.039   2.549  0.5515  0.2389  0.1452
 1193SOL    HW1 3714   4.739  -0.044   2.525 -0.6733  0.5806  0.9373
 1193SOL    HW2 3715   4.777   0.040   2.645  3.2086 -0.0781  0.3000
 1194SOL     OW 3716   4.392   0.465   0.111  0.4552  0.3057 -0.8881
 1194SOL    HW1 3717   4.310   0.459   0.063 -0.0574  1.9470 -0.2904
 1194SOL    HW2 3718   4.373   0.425   0.196 -0.1544  1.8649 -0.2645
 1195SOL     OW 3719   3.964   3.273   2.647 -0.5011 -0.2292  0.0006
 1195SOL    HW1 3720   3.923   3.300   2.729 -0.7317  1.4936 -0.6474
 1195SOL    HW2 3721   4.036   3.335   2.634 -0.8396 -0.0834 -1.3817
 1196SOL     OW 3722   1.631   3.179   4.888  0.2093  0.2710  0.1043
 1196SOL    HW1 3723   1.629   3.248   4.954  1.4846  1.3357 -0.9072
 1196SOL    HW2 3724   1.610   3.224   4.806 -0.1194 -0.7834 -0.4126
 1197SOL     OW 3725   3.670   0.799   0.211  0.2590  0.6502  0.2774
 1197SOL    HW1 3726   3.616   0.738   0.261  0.1667 -0.0988 -0.7057
 1197SOL    HW2 3727   3.671   0.879   0.263 -0.7674  0.2614  0.9086
 1198SOL     OW 3728   2.707   2.069   0.601  0.1578  0.0509  0.3020
 1198SOL    HW1 3729   2.673   2.098   0.686 -1.8167 -2.5608  0.5436
 1198SOL    HW2 3730   2.750   1.985   0.620  0.3840 -0.1954 -1.1580
 1199SOL     OW 3731   0.506   4.135   4.011  0.1482 -0.0270 -0.0697
 1199SOL    HW1 3732   0.593   4.126   4.049  0.4664  0.4352 -0.6581
 1199SOL    HW2 3733   0.464   4.205   4.062  2.2197  3.9989 -3.2530
 1200SOL     OW 3734   2.174   4.285   0.564 -0.5597 -0.0863 -0.0112
 1200SOL    HW1 3735   2.161   4.200   0.607  0.3875  0.2170  0.9162
 1200SOL    HW2 3736   2.110   4.342   0.606 -0.1193  0.0365  0.5004
 1201SOL     OW 3737   4.181   3.882   3.615  0.2967 -0.4577 -0.3467
 1201SOL    HW1 3738   4.239   3.958   3.606  2.4993 -1.9569  0.3604
 1201SOL    HW2 3739   4.153   3.862   3.526 -0.6921  1.3973 -0.5005
 1202SOL     OW 3740   0.740   3.040   0.703  0.0761  0.2263  0.1662
 1202SOL    HW1 3741   0.774   2.952   0.686 -1.5254 -0.6283  1.1344
 1202SOL    HW2 3742   0.660   3.044   0.651 -2.0334 -0.4606  3.1065
 1203SOL     OW 3743   4.699   3.009   4.161  0.3157  0.4430 -0.2575
 1203SOL    HW1 3744   4.698   2.913   4.162  1.9309  0.3867  1.1203
 1203SOL    HW2 3745   4.628   3.035   4.220 -0.4817  0.1180 -1.0656
 1204SOL     OW 3746   1.409   0.708   1.255 -0.6453  0.4533  0.1197
 1204SOL    HW1 3747   1.414   0.614   1.270  0.8581  0.4276 -0.3546
 1204SOL    HW2 3748   1.463   0.723   1.177 -0.8566  1.7017  0.1882
 1205SOL     OW 3749   4.950   3.101   1.062 -0.2987 -0.1546  0.0695
 1205SOL    HW1 3750   4.951   3.010   1.032  0.1535 -0.0766 -0.1753
 1205SOL    HW2 3751   5.041   3.130   1.051 -0.7981  0.9167 -1.7292
 1206SOL     OW 3752   2.771   4.529   3.481  0.3695 -0.0171  0.0689
 1206SOL    HW1 3753   2.790   4.448   3.528  0.6372 -0.8641 -1.4230
 1206SOL    HW2 3754   2.777   4.505   3.389 -1.4403  1.2644 -0.4364
 1207SOL     OW 3755   2.154   3.020   1.229  0.0808  0.3491  0.2837
 1207SOL    HW1 3756   2.095   2.993   1.160 -1.2856 -3.1598  2.5368
 1207SOL    HW2 3757   2.240   3.025   1.187 -0.6381 -1.8851 -1.6239
 1208SOL     OW 3758   0.979   2.836   1.661 -0.3333  0.0372 -0.0093
 1208SOL    HW1 3759   0.911   2.863   1.723 -1.5446  0.9059 -1.6534
 1208SOL    HW2 3760   0.937   2.843   1.575  0.9806 -2.0622 -0.8996
 1209SOL     OW 3761   4.815   4.582   4.079  0.1339 -0.0108  0.3640
 1209SOL    HW1 3762   4.765   4.615   4.005 -2.4843  0.9853  2.4107
 1209SOL    HW2 3763   4.840   4.661   4.128 -1.2639 -0.7086  2.3225
 1210SOL     OW 3764   4.074   4.200   2.465  0.1992  0.2917 -0.5021
 1210SOL    HW1 3765   4.142   4.148   2.420  1.1655  1.3849 -0.3576
 1210SOL    HW2 3766   3.993   4.153   2.447  0.7904 -0.2504 -1.9550
 1211SOL     OW 3767   3.820   0.460   3.373 -0.3296 -0.4389  0.3567
 1211SOL    HW1 3768   3.911   0.484   3.392 -0.6465 -0.3059  1.8589
 1211SOL    HW2 3769   3.821   0.365   3.369  0.4005 -0.3999 -2.7346
 1212SOL     OW 3770   0.248   2.193   2.248 -0.0386  0.1919 -0.4187
 1212SOL    HW1 3771   0.231   2.280   2.211  0.2305  0.0077 -0.9901
 1212SOL    HW2 3772   0.180   2.182   2.315  0.4040  1.1620  0.2107
 1213SOL     OW 3773   3.570   1.134   2.958  0.4002  0.4556  0.2479
 1213SOL    HW1 3774   3.599   1.203   3.018  0.2028  1.7175 -1.0310
 1213SOL    HW2 3775   3.576   1.053   3.008 -2.5217  1.6967  2.9950
 1214SOL     OW 3776   1.647   1.631   3.496  0.3931 -0.1535  0.4888
 1214SOL    HW1 3777   1.700   1.668   3.426 -1.1794  2.9597  0.7459
 1214SOL    HW2 3778   1.691   1.657   3.576 -0.6731  1.2357  0.6724
 1215SOL     OW 3779   1.604   0.020   4.888 -0.8730 -0.0602 -0.5417
 1215SOL    HW1 3780   1.583  -0.027   4.807 -0.4586  1.1588 -1.3929
 1215SOL    HW2 3781   1.653   0.097   4.859  0.1387 -0.0888  0.9511
 1216SOL     OW 3782   2.098   0.778   4.088 -0.0319 -0.6189 -0.0038
 1216SOL    HW1 3783   2.112   0.774   3.994  0.1053 -0.1882 -0.0049
 1216SOL    HW2 3784   2.186   0.787   4.125 -0.2175  4.2124 -0.1240
 1217SOL     OW 3785   1.534   3.371   1.512 -0.5101 -0.5012  0.1296
 1217SOL    HW1 3786   1.568   3.450   1.469 -2.7100  0.9317  0.8217
 1217SOL    HW2 3787   1.441   3.389   1.523 -1.0075 -3.0838  0.6701
 1218SOL     OW 3788   1.613   4.670   3.641 -0.4836 -0.5257  0.0919
 1218SOL    HW1 3789   1.618   4.702   3.551  0.0503  0.4495  0.4575
 1218SOL    HW2 3790   1.645   4.580   3.636 -2.0511 -1.0614 -0.9615
 1219SOL     OW 3791   3.516   4.385   4.560 -0.4883 -0.3331 -1.0093
 1219SOL    HW1 3792   3.556   4.354   4.642 -0.7496  1.2636 -0.2322
 1219SOL    HW2 3793   3.428   4.348   4.562  0.1247 -1.9230 -1.5721
 1220SOL     OW 3794   1.738   3.363   4.647  0.2906 -0.0859  0.1790
 1220SOL    HW1 3795   1.648   3.392   4.636  0.0135 -1.2755 -1.0088
 1220SOL    HW2 3796   1.790   3.443   4.641 -0.7481  0.8191  2.3855
 1221SOL     OW 3797   2.278   3.391   1.853 -0.0637 -0.1693  0.0506
 1221SOL    HW1 3798   2.314   3.314   1.809  0.4037  0.1656 -0.1629
 1221SOL    HW2 3799   2.200   3.359   1.898 -0.2228 -0.6398 -0.5458
 1222SOL     OW 3800   4.758   1.211   1.888  0.2625 -0.4778  0.8657
 1222SOL    HW1 3801   4.664   1.227   1.892 -0.0502 -1.4849 -1.2037
 1222SOL    HW2 3802   4.776   1.156   1.964 -0.8142 -0.3299  1.2473
 1223SOL     OW 3803   4.510   4.127   0.424 -0.0341 -0.4167 -0.8667
 1223SOL    HW1 3804   4.483   4.212   0.460 -1.7293 -1.2599 -0.0067
 1223SOL    HW2 3805   4.465   4.121   0.340 -0.6588 -0.8306 -0.5106
 1224SOL     OW 3806   0.710   0.742   0.919  0.3529  0.1816 -0.2565
 1224SOL    HW1 3807   0.694   0.771   0.829  0.4258  0.3445 -0.2164
 1224SOL    HW2 3808   0.631   0.766   0.966  1.0593  1.8216  0.1503
 1225SOL     OW 3809   0.817   0.968   0.195  0.3242  0.2526  0.0260
 1225SOL    HW1 3810   0.872   1.001   0.124 -2.0239  2.3337 -0.9700
 1225SOL    HW2 3811   0.781   1.046   0.236 -1.4399 -0.9838  0.9872
 1226SOL     OW 3812   2.537   1.295   1.763 -0.0073  0.2723  0.2276
 1226SOL    HW1 3813   2.506   1.222   1.816  0.4591  0.2820  0.5175
 1226SOL    HW2 3814   2.601   1.340   1.819  0.2393  0.4786 -0.2152
 1227SOL     OW 3815   0.370   2.268   4.449 -0.6523 -0.1586  0.6711
 1227SOL    HW1 3816   0.407   2.352   4.476  1.3220  0.1348 -2.5119
 1227SOL    HW2 3817   0.280   2.288   4.425 -0.0333  1.2437 -0.6230
 1228SOL     OW 3818   0.267   2.164   2.684 -0.0605 -0.0182  0.0506
 1228SOL    HW1 3819   0.192   2.104   2.681 -1.3804  1.5391 -2.8052
 1228SOL    HW2 3820   0.341   2.112   2.653 -0.6428 -0.7926 -0.0555
 1229SOL     OW 3821   0.790   1.119   3.417  0.1564  0.1663 -0.3789
 1229SOL    HW1 3822   0.839   1.037   3.426 -2.1533 -1.1837  0.9166
 1229SOL    HW2 3823   0.835   1.180   3.476  0.4918 -0.9366  0.5596
 1230SOL     OW 3824   4.622   2.125   3.702 -0.1360  0.0223  0.0405
 1230SOL    HW1 3825   4.597   2.178   3.778  0.6153 -1.4711  1.3921
 1230SOL    HW2 3826   4.586   2.038   3.721  0.3500 -0.4635 -1.1599
 1231SOL     OW 3827   0.995   4.726   3.379  0.2741 -0.4567  0.1177
 1231SOL    HW1 3828   0.965   4.647   3.423 -1.5855  0.5940  0.8916
 1231SOL    HW2 3829   0.915   4.768   3.348  1.0747  1.6217  0.6455
 1232SOL     OW 3830   2.549   4.287   2.486 -0.3540 -0.4352  0.2550
 1232SOL    HW1 3831   2.642   4.268   2.476 -0.7597 -1.9730 -0.8339
 1232SOL    HW2 3832   2.520   4.312   2.398 -0.5491  2.2205  0.9892
 1233SOL     OW 3833   4.688   0.369   1.435  0.5094  0.2617 -0.1282
 1233SOL    HW1 3834   4.594   0.364   1.450  0.7502 -1.2270  1.0741
 1233SOL    HW2 3835   4.704   0.462   1.418 -1.3090  0.3765 -1.4939
 1234SOL     OW 3836   2.479   2.283   3.711 -0.1826 -0.0005  0.5820
 1234SOL    HW1 3837   2.510   2.218   3.648  0.9847 -0.7714  1.8805
 1234SOL    HW2 3838   2.412   2.238   3.761 -0.6043  0.3742  0.3567
 1235SOL     OW 3839   4.500   0.710   4.150 -0.3182 -0.4110  0.4258
 1235SOL    HW1 3840   4.539   0.780   4.203  0.4838 -0.9023  0.5174
 1235SOL    HW2 3841   4.413   0.697   4.187 -0.2609  0.1561  0.7706
 1236SOL     OW 3842   2.704   0.600   1.778 -0.4307  0.0278  0.0568
 1236SOL    HW1 3843   2.627   0.543   1.782  1.0168 -2.0263 -0.3019
 1236SOL    HW2 3844   2.717   0.615   1.684 -0.8668  1.1084  0.1487
 1237SOL     OW 3845   2.929   2.903   4.265 -0.1572 -0.5835  1.2316
 1237SOL    HW1 3846   2.862   2.971   4.267 -1.1038 -1.4478  0.0273
 1237SOL    HW2 3847   2.932   2.870   4.355  0.5365  1.2149  1.9106
 1238SOL     OW 3848   1.930   2.663   3.584  0.6593  0.0121 -0.0754
 1238SOL    HW1 3849   1.836   2.677   3.575  1.0688  1.6325 -2.5862
 1238SOL    HW2 3850   1.951   2.694   3.672 -1.0133  0.3513  0.2268
 1239SOL     OW 3851   2.705   0.113   2.861  0.0344 -0.4906  0.0020
 1239SOL    HW1 3852   2.692   0.111   2.766 -1.5657  0.2635  0.1602
 1239SOL    HW2 3853   2.622   0.148   2.895  0.0943 -1.9154  1.7582
 1240SOL     OW 3854   2.959   2.843   1.868  0.0392 -0.1536  0.3893
 1240SOL    HW1 3855   3.013   2.918   1.893  0.7325 -0.7085  0.5829
 1240SOL    HW2 3856   2.884   2.845   1.928  0.2631  0.1500  0.6584
 1241SOL     OW 3857   3.952   4.555   0.212 -0.0589  0.5903 -0.2307
 1241SOL    HW1 3858   3.983   4.575   0.124 -0.3876 -0.2025 -0.5435
 1241SOL    HW2 3859   3.957   4.638   0.259 -0.6096  1.2027 -1.2181
 1242SOL     OW 3860   1.801   4.699   4.960 -0.5289 -0.5576  0.6329
 1242SOL    HW1 3861   1.794   4.752   5.039 -0.2435 -0.4100  0.5621
 1242SOL    HW2 3862   1.711   4.693   4.927 -0.5362  0.0397  0.5392
 1243SOL     OW 3863   0.761   2.003   2.584 -0.4021 -0.0715 -0.4766
 1243SOL    HW1 3864   0.723   1.923   2.547 -1.9936  0.9320 -1.1238
 1243SOL    HW2 3865   0.848   1.977   2.613 -0.6304 -1.8809 -1.2749
 1244SOL     OW 3866   4.436   3.858   0.321  0.0971  0.4166  0.8545
 1244SOL    HW1 3867   4.435   3.887   0.412 -0.6862  2.7946  0.1759
 1244SOL    HW2 3868   4.439   3.763   0.326  1.4440  0.5084  3.3353
 1245SOL     OW 3869   2.141   3.464   4.530 -0.0663  0.9443  0.0400
 1245SOL    HW1 3870   2.092   3.532   4.485 -0.0733  2.0479  1.6236
 1245SOL    HW2 3871   2.207   3.435   4.467  0.6929  3.2617 -0.3091
 1246SOL     OW 3872   3.474   4.091   1.239  0.0329 -0.8222 -0.3233
 1246SOL    HW1 3873   3.565   4.115   1.217 -1.1813  2.3761 -2.8362
 1246SOL    HW2 3874   3.435   4.067   1.155 -2.2889  1.5416 -0.0655
 1247SOL     OW 3875   0.495   0.587   2.063 -0.3278 -0.0929 -0.7651
 1247SOL    HW1 3876   0.408   0.552   2.046 -1.3708  1.7288  0.4076
 1247SOL    HW2 3877   0.549   0.510   2.081 -2.0805 -1.2059  0.0431
 1248SOL     OW 3878   0.720   3.999   4.535  0.1113  0.0435  0.2374
 1248SOL    HW1 3879   0.643   3.974   4.484  0.5363 -0.9549  0.0738
 1248SOL    HW2 3880   0.697   3.975   4.625 -0.2482  0.9052  0.3932
 1249SOL     OW 3881   3.316   0.523   2.015 -0.5112 -0.2628 -0.3693
 1249SOL    HW1 3882   3.357   0.473   2.084 -1.3804 -0.7442 -0.1872
 1249SOL    HW2 3883   3.369   0.507   1.937 -0.2849 -0.7615 -0.1093
 1250SOL     OW 3884   4.223   0.382   1.697  0.8754  0.2694 -0.2569
 1250SOL    HW1 3885   4.244   0.293   1.669  2.6481  0.7989 -0.7706
 1250SOL    HW2 3886   4.275   0.438   1.639 -1.3637  1.7339 -0.9705
 1251SOL     OW 3887   4.934   3.415   1.004  0.2521 -0.1912  0.1572
 1251SOL    HW1 3888   4.898   3.367   0.928 -2.0909  0.3607  0.8310
 1251SOL    HW2 3889   4.865   3.477   1.027  2.3028  2.0300  0.6887
 1252SOL     OW 3890   1.740   4.893   0.637 -0.7787 -0.2080  0.4336
 1252SOL    HW1 3891   1.722   4.987   0.634  1.0173  0.1657 -2.2614
 1252SOL    HW2 3892   1.834   4.886   0.622 -0.6465 -2.4452  1.8155
 1253SOL     OW 3893   4.125   2.500   4.448 -0.0508 -0.4282 -0.8018
 1253SOL    HW1 3894   4.211   2.465   4.428 -0.0257  0.6189 -2.7984
 1253SOL    HW2 3895   4.076   2.493   4.366 -0.9734  1.4238 -0.4732
 1254SOL     OW 3896   0.496   3.618   3.659  0.1245  0.1477 -0.0143
 1254SOL    HW1 3897   0.482   3.685   3.591 -1.3423  0.3663  0.4625
 1254SOL    HW2 3898   0.554   3.661   3.722 -1.8024  1.5142  0.9372
 1255SOL     OW 3899   1.934   4.067   1.600  0.2057  0.4641  0.0817
 1255SOL    HW1 3900   1.889   4.134   1.653  0.2303  0.8687 -0.4042
 1255SOL    HW2 3901   1.877   3.990   1.607 -0.7528  1.0622 -0.7772
 1256SOL     OW 3902   4.967   4.248   2.546  0.3072  0.0896 -0.2832
 1256SOL    HW1 3903   5.057   4.217   2.555  0.4205  0.8181  1.6076
 1256SOL    HW2 3904   4.925   4.225   2.629 -0.2920  2.6709  0.2248
 1257SOL     OW 3905   0.096   4.861   1.317 -0.6924 -0.2540 -0.3848
 1257SOL    HW1 3906   0.039   4.930   1.351  0.7430  0.9764 -0.3756
 1257SOL    HW2 3907   0.125   4.813   1.394 -1.8264 -1.0099 -0.4051
 1258SOL     OW 3908   3.032   4.591   0.871 -0.1571 -0.1328  0.4907
 1258SOL    HW1 3909   3.053   4.576   0.778  0.2988  2.9915 -0.0197
 1258SOL    HW2 3910   2.941   4.619   0.870 -0.6138 -1.5001  1.2283
 1259SOL     OW 3911   0.895   1.212   0.997 -0.0306  0.1193 -0.4263
 1259SOL    HW1 3912   0.898   1.120   0.972  1.0342  0.3959 -1.3910
 1259SOL    HW2 3913   0.818   1.219   1.055 -0.8483 -1.1156 -1.3176
 1260SOL     OW 3914   2.804   2.537   0.896 -0.2952 -0.0968 -0.5000
 1260SOL    HW1 3915   2.772   2.582   0.818 -1.0778  1.5025  0.7002
 1260SOL    HW2 3916   2.725   2.504   0.939  0.2172 -2.1935 -1.0394
 1261SOL     OW 3917   2.788   0.160   4.150 -0.1319  0.0402 -0.1387
 1261SOL    HW1 3918   2.884   0.155   4.150 -0.1092  0.4373 -0.7836
 1261SOL    HW2 3919   2.762   0.119   4.068 -0.4862  0.4322 -0.2227
 1262SOL     OW 3920   0.698   3.713   3.032  0.1370  0.2485 -0.1335
 1262SOL    HW1 3921   0.667   3.761   3.109 -0.9722 -1.3485  0.4732
 1262SOL    HW2 3922   0.620   3.665   3.002  1.5442 -2.4700  0.3056
 1263SOL     OW 3923   2.044   3.379   1.537  0.2010 -0.2211  0.3217
 1263SOL    HW1 3924   2.097   3.419   1.468 -1.3899  0.4739 -0.5584
 1263SOL    HW2 3925   2.061   3.433   1.614  1.8033 -0.8556  0.4661
 1264SOL     OW 3926   2.017   2.622   2.777 -0.0780  0.0407 -0.0775
 1264SOL    HW1 3927   2.032   2.641   2.685 -0.8248 -2.3025 -0.7614
 1264SOL    HW2 3928   2.099   2.582   2.807  0.2448  1.0079  0.3576
 1265SOL     OW 3929   3.413   0.063   2.222  0.0630  0.2104 -0.3913
 1265SOL    HW1 3930   3.386   0.074   2.313  1.7122  2.5724 -0.0938
 1265SOL    HW2 3931   3.331   0.053   2.174 -0.8258 -4.3065  1.5519
 1266SOL     OW 3932   1.822   3.247   0.982  0.2114  0.1478  0.0878
 1266SOL    HW1 3933   1.763   3.308   1.026  1.7880  2.0634 -0.2737
 1266SOL    HW2 3934   1.824   3.278   0.891  3.5177  1.7917  0.5445
 1267SOL     OW 3935   2.048   4.220   4.797 -0.3811 -0.4145  0.5183
 1267SOL    HW1 3936   2.088   4.235   4.883 -1.7364 -1.1927  1.3162
 1267SOL    HW2 3937   2.038   4.307   4.760 -0.7304  0.0240  1.6067
 1268SOL     OW 3938   4.427   0.250   2.409 -0.6437 -0.5359 -0.1112
 1268SOL    HW1 3939   4.504   0.307   2.400 -0.3136 -0.8165  0.8924
 1268SOL    HW2 3940   4.353   0.305   2.382 -0.2215  0.0717 -0.0387
 1269SOL     OW 3941   0.238   1.429   2.852  0.1487  0.1303  0.3642
 1269SOL    HW1 3942   0.190   1.487   2.793  0.6914  0.9108  0.6603
 1269SOL    HW2 3943   0.269   1.487   2.922  1.6864 -0.2950  0.0722
 1270SOL     OW 3944   1.753   1.548   1.952 -0.2654  0.5057 -0.1842
 1270SOL    HW1 3945   1.756   1.577   2.043  1.2616 -2.6197  0.9202
 1270SOL    HW2 3946   1.838   1.571   1.916 -0.3041  0.4202 -0.3334
 1271SOL     OW 3947   4.064   3.635   0.306 -0.0674 -0.1129  0.2304
 1271SOL    HW1 3948   4.147   3.602   0.340 -0.2411  0.8060  1.6547
 1271SOL    HW2 3949   4.042   3.708   0.364 -2.1203 -0.6528  0.2097
 1272SOL     OW 3950   2.797   1.160   3.939  0.6761  1.0264  0.7895
 1272SOL    HW1 3951   2.821   1.077   3.898 -0.7843  2.1162 -2.6302
 1272SOL    HW2 3952   2.713   1.143   3.981  0.0331  0.9108 -0.5136
 1273SOL     OW 3953   3.384   4.739   4.354 -0.1094  1.1255 -0.3859
 1273SOL    HW1 3954   3.466   4.691   4.347 -0.8162  0.0468 -2.0891
 1273SOL    HW2 3955   3.406   4.828   4.329  0.4858  0.7491 -1.2504
 1274SOL     OW 3956   3.020   1.466   2.040  0.0079 -0.1639  0.1928
 1274SOL    HW1 3957   3.018   1.387   1.984  0.0610 -2.0861  2.7255
 1274SOL    HW2 3958   3.110   1.468   2.074 -0.2681  0.4684  0.8951
 1275SOL     OW 3959   0.412   1.083   3.683  0.4323 -0.6992 -0.4842
 1275SOL    HW1 3960   0.417   1.058   3.591 -0.2528 -0.6513 -0.5412
 1275SOL    HW2 3961   0.500   1.068   3.717  1.5856  2.1446 -1.8753
 1276SOL     OW 3962   1.512   1.871   1.661  0.7339 -0.2146  0.3339
 1276SOL    HW1 3963   1.474   1.840   1.743  0.4571  0.7863  0.6077
 1276SOL    HW2 3964   1.538   1.962   1.679 -1.3859  0.8264 -1.2714
 1277SOL     OW 3965   2.086   4.429   2.918 -0.2372  0.2545 -0.1703
 1277SOL    HW1 3966   2.002   4.390   2.894 -0.4527  0.4345  0.2846
 1277SOL    HW2 3967   2.150   4.362   2.894 -0.4802  0.2312 -0.7900
 1278SOL     OW 3968   4.701   1.692   2.113 -0.0302 -0.2259  0.5684
 1278SOL    HW1 3969   4.635   1.636   2.071 -1.0662  0.6629  0.9473
 1278SOL    HW2 3970   4.724   1.644   2.193  0.1597 -0.7822  0.1863
 1279SOL     OW 3971   0.879   2.776   4.524  0.0365  0.2861 -0.1788
 1279SOL    HW1 3972   0.919   2.712   4.466  0.6721  0.4622  0.0579
 1279SOL    HW2 3973   0.786   2.752   4.525  0.3105 -0.8179  0.1488
 1280SOL     OW 3974   4.360   3.575   4.497 -0.7901 -0.1416 -0.5026
 1280SOL    HW1 3975   4.376   3.598   4.405 -2.1998 -0.1955 -0.7798
 1280SOL    HW2 3976   4.444   3.540   4.528 -0.4309 -0.5737 -1.9051
 1281SOL     OW 3977   4.868   1.391   4.016 -0.2372 -0.0796 -0.0304
 1281SOL    HW1 3978   4.961   1.375   4.032  0.9066  2.1121 -3.3329
 1281SOL    HW2 3979   4.831   1.304   4.000  1.3049 -0.9731  1.0208
 1282SOL     OW 3980   1.679   0.060   4.092  0.3120  0.3814  0.0457
 1282SOL    HW1 3981   1.598   0.010   4.100  0.0494  0.7459 -0.2989
 1282SOL    HW2 3982   1.728   0.039   4.171 -0.2409  0.3722  0.3911
 1283SOL     OW 3983   4.955   4.189   1.229  0.4780  0.5738  0.1319
 1283SOL    HW1 3984   4.944   4.153   1.317  0.9697  3.8488  1.6689
 1283SOL    HW2 3985   5.049   4.186   1.214  0.3714 -0.2160 -0.4281
 1284SOL     OW 3986   3.478   3.927   1.576  0.0008 -0.7856 -0.6179
 1284SOL    HW1 3987   3.400   3.897   1.623  0.5133 -0.7906  0.2600
 1284SOL    HW2 3988   3.445   3.981   1.505 -0.8764 -2.1804 -1.3063
 1285SOL     OW 3989   0.140   2.262   3.592 -0.3929  0.3018 -0.4910
 1285SOL    HW1 3990   0.139   2.201   3.518  2.4844 -2.1691  1.2836
 1285SOL    HW2 3991   0.205   2.327   3.568 -1.6077  1.2770 -1.2903
 1286SOL     OW 3992   2.554   4.626   2.326  0.2970  0.3018 -0.1140
 1286SOL    HW1 3993   2.504   4.593   2.401 -0.5168 -0.1652 -0.8385
 1286SOL    HW2 3994   2.576   4.716   2.349 -0.5637  0.3952  0.3910
 1287SOL     OW 3995   2.203   0.348   3.600  0.0437 -0.3593  0.2604
 1287SOL    HW1 3996   2.277   0.408   3.590 -0.4795  0.3813  0.7120
 1287SOL    HW2 3997   2.185   0.316   3.512  2.7570 -2.8868  0.4387
 1288SOL     OW 3998   4.249   0.748   1.383 -0.6753  0.7558 -0.2789
 1288SOL    HW1 3999   4.298   0.793   1.451 -1.0387  2.0038 -0.8029
 1288SOL    HW2 4000   4.171   0.714   1.427 -0.4792  0.7848  0.0894
 1289SOL     OW 4001   4.034   3.656   1.834  0.3886 -0.3274  0.6920
 1289SOL    HW1 4002   4.076   3.680   1.751  2.2628 -0.4234  1.5565
 1289SOL    HW2 4003   4.107   3.641   1.894 -0.9285  1.0343  2.7434
 1290SOL     OW 4004   1.781   4.246   2.455 -0.2298 -0.4292 -0.4367
 1290SOL    HW1 4005   1.773   4.337   2.486 -1.1336 -0.4608 -0.5594
 1290SOL    HW2 4006   1.854   4.210   2.506  2.1070  1.1800 -2.3570
 1291SOL     OW 4007   4.183   2.283   0.222 -0.2198  0.0478  0.2688
 1291SOL    HW1 4008   4.108   2.315   0.172  0.1673 -0.2807 -0.5269
 1291SOL    HW2 4009   4.249   2.351   0.213  0.0274 -0.2366 -0.0779
 1292SOL     OW 4010   0.569   2.235   3.261  0.4160  0.2779 -0.2128
 1292SOL    HW1 4011   0.532   2.231   3.173 -0.2002 -0.2983  0.0637
 1292SOL    HW2 4012   0.598   2.325   3.271  0.3288  0.3913 -0.9409
 1293SOL     OW 4013   4.601   1.512   1.417  0.0611 -0.2005 -0.0778
 1293SOL    HW1 4014   4.539   1.503   1.344 -0.4969  0.1387  0.3453
 1293SOL    HW2 4015   4.639   1.599   1.405 -2.1065  1.0919  1.5770
 1294SOL     OW 4016   0.355   2.987   0.829 -0.5240  0.5064  0.4456
 1294SOL    HW1 4017   0.370   2.950   0.916 -0.5957 -1.6003 -0.3701
 1294SOL    HW2 4018   0.266   2.960   0.807 -0.3383  0.5982 -0.4550
 1295SOL     OW 4019   1.938   0.625   2.665 -0.0183  0.1735 -0.5483
 1295SOL    HW1 4020   1.912   0.609   2.755  2.3980 -1.2636 -0.0202
 1295SOL    HW2 4021   1.924   0.542   2.621  1.2616  0.0864 -0.8289
 1296SOL     OW 4022   4.180   3.561   0.601 -0.0837  0.1670 -0.1962
 1296SOL    HW1 4023   4.236   3.509   0.658  0.6662 -0.0122 -1.0656
 1296SOL    HW2 4024   4.241   3.607   0.543 -0.6884  2.5813  0.9858
 1297SOL     OW 4025   0.497   0.051   4.338 -0.3053 -0.3150 -0.8664
 1297SOL    HW1 4026   0.489   0.044   4.243  0.9111 -1.0875 -0.9322
 1297SOL    HW2 4027   0.535   0.137   4.353 -0.2139 -0.3133 -1.1027
 1298SOL     OW 4028   3.120   0.730   0.950  0.1492 -0.2853  0.1287
 1298SOL    HW1 4029   3.184   0.783   0.903  0.9238  1.0294  2.5124
 1298SOL    HW2 4030   3.060   0.793   0.989  0.5269 -1.1541  2.2654
 1299SOL     OW 4031   1.693   0.893   4.713  0.2716 -0.0105  0.5269
 1299SOL    HW1 4032   1.692   0.889   4.618  1.0977 -0.3690  0.5201
 1299SOL    HW2 4033   1.605   0.919   4.738 -0.6154 -2.1563 -0.2204
 1300SOL     OW 4034   2.173   2.170   0.486  0.7760  0.0427 -0.1715
 1300SOL    HW1 4035   2.262   2.150   0.515  0.6214  0.5654  0.6916
 1300SOL    HW2 4036   2.120   2.166   0.566  0.0365 -0.1558 -0.6593
 1301SOL     OW 4037   2.342   2.318   1.799  0.3869 -0.7161  0.5856
 1301SOL    HW1 4038   2.425   2.280   1.768  1.1336  0.5050  1.0079
 1301SOL    HW2 4039   2.357   2.413   1.795 -0.5682 -0.4966  1.7997
 1302SOL     OW 4040   1.861   1.296   4.061  0.0843 -0.1322 -0.7493
 1302SOL    HW1 4041   1.821   1.373   4.022  1.8955  0.5062 -1.4623
 1302SOL    HW2 4042   1.912   1.330   4.135 -0.2327 -0.8386 -0.1888
 1303SOL     OW 4043   0.759   1.148   2.754  0.3237  0.5174  0.3456
 1303SOL    HW1 4044   0.682   1.173   2.806  0.1382  0.3982  0.1277
 1303SOL    HW2 4045   0.724   1.095   2.682  0.8119 -1.6465  1.5812
 1304SOL     OW 4046   2.603   3.266   3.629 -0.1854 -0.2362 -0.2587
 1304SOL    HW1 4047   2.678   3.217   3.662  0.5661  0.2987 -1.1056
 1304SOL    HW2 4048   2.551   3.202   3.582  0.1019 -0.4805 -0.2465
 1305SOL     OW 4049   1.135   1.575   2.619  0.4302 -0.1822 -0.2876
 1305SOL    HW1 4050   1.219   1.534   2.639 -0.0064 -0.1771  1.7063
 1305SOL    HW2 4051   1.072   1.528   2.673 -0.6215  0.8100 -0.6245
 1306SOL     OW 4052   1.238   4.599   0.852 -0.1959  0.1377 -0.0760
 1306SOL    HW1 4053   1.244   4.563   0.941 -3.2067  0.5346  0.3997
 1306SOL    HW2 4054   1.314   4.656   0.844  1.5640 -1.8497  1.2453
 1307SOL     OW 4055   2.028   1.335   1.073  0.2259  0.1156 -0.2483
 1307SOL    HW1 4056   2.108   1.372   1.109  0.8540  0.1427 -1.6194
 1307SOL    HW2 4057   2.000   1.398   1.007 -0.1338 -0.5887 -0.7769
 1308SOL     OW 4058   3.997   0.303   1.024  0.0376 -0.2676 -0.3707
 1308SOL    HW1 4059   3.924   0.261   0.978  2.1118 -3.0473 -1.3401
 1308SOL    HW2 4060   4.012   0.384   0.976 -2.2990  0.3640 -0.1748
 1309SOL     OW 4061   1.837   0.417   2.520 -0.0558  0.3644 -0.4923
 1309SOL    HW1 4062   1.872   0.392   2.434 -0.3613 -0.4330 -0.3947
 1309SOL    HW2 4063   1.766   0.478   2.499  0.5891  1.0542 -0.7437
 1310SOL     OW 4064   0.797   2.526   2.629 -0.3270 -0.3095 -0.4826
 1310SOL    HW1 4065   0.832   2.552   2.544 -0.5950  0.6681 -0.3115
 1310SOL    HW2 4066   0.767   2.608   2.668  2.9492 -0.0653  2.0210
 1311SOL     OW 4067   2.123   2.668   2.537  0.1264 -0.2535  0.0855
 1311SOL    HW1 4068   2.178   2.612   2.482  1.0764 -0.4743  1.2416
 1311SOL    HW2 4069   2.169   2.752   2.539 -0.4751  0.0983 -0.3333
 1312SOL     OW 4070   3.497   2.933   1.254  0.1004  0.2157 -0.0358
 1312SOL    HW1 4071   3.474   3.004   1.313 -0.5385  0.3044 -0.3787
 1312SOL    HW2 4072   3.563   2.970   1.196 -0.5634  0.6777 -0.5054
 1313SOL     OW 4073   1.891   4.532   1.600  0.0145  0.1379  0.0317
 1313SOL    HW1 4074   1.823   4.582   1.555  0.5715 -1.1072 -2.3835
 1313SOL    HW2 4075   1.941   4.491   1.529  1.7003 -1.0378  1.8034
 1314SOL     OW 4076   2.012   2.051   4.481 -0.4331  0.3508  0.0879
 1314SOL    HW1 4077   1.980   2.100   4.556 -0.3070 -0.4043  0.6495
 1314SOL    HW2 4078   2.072   1.986   4.518 -0.9129 -0.5022 -0.5663
 1315SOL     OW 4079   4.851   1.457   4.681  1.1898  0.4846  0.6895
 1315SOL    HW1 4080   4.807   1.541   4.695  1.2342  0.5662  0.3399
 1315SOL    HW2 4081   4.939   1.470   4.718  0.7404  0.1298  1.9309
 1316SOL     OW 4082   3.211   2.638   2.078 -0.4959 -0.6413 -0.1278
 1316SOL    HW1 4083   3.237   2.725   2.047 -0.8203 -0.7457 -0.7137
 1316SOL    HW2 4084   3.271   2.620   2.150 -0.1441 -0.1122 -0.2755
 1317SOL     OW 4085   3.369   4.805   1.744 -0.4533 -0.6312 -0.2728
 1317SOL    HW1 4086   3.461   4.819   1.768 -0.2746 -0.3787 -1.0530
 1317SOL    HW2 4087   3.324   4.795   1.827  0.4128 -1.6312  0.1090
 1318SOL     OW 4088   0.686   0.594   4.988  0.2280  0.1161 -0.1252
 1318SOL    HW1 4089   0.656   0.550   4.908 -0.2933  0.7817 -0.3031
 1318SOL    HW2 4090   0.737   0.527   5.034  0.2593 -0.3760 -0.8557
 1319SOL     OW 4091   2.610   0.311   3.455 -0.4736  0.9214  0.1169
 1319SOL    HW1 4092   2.641   0.363   3.381 -3.7241  1.3897 -1.0778
 1319SOL    HW2 4093   2.618   0.220   3.426  2.0076  0.8474  0.8596
 1320SOL     OW 4094   1.852   3.310   0.690  0.2727  0.7296 -0.1678
 1320SOL    HW1 4095   1.791   3.374   0.654 -0.9063  0.8655  1.8852
 1320SOL    HW2 4096   1.860   3.243   0.623 -2.9670  0.2017 -0.1978
 1321SOL     OW 4097   3.880   2.734   0.628  0.6271  0.5684  0.3568
 1321SOL    HW1 4098   3.797   2.696   0.599  0.3190 -0.9795  2.9595
 1321SOL    HW2 4099   3.858   2.785   0.706  2.0753  0.2016  1.0551
 1322SOL     OW 4100   1.051   1.745   0.476  0.4620 -0.2304 -0.6423
 1322SOL    HW1 4101   0.980   1.792   0.519  1.8794  1.0673  0.3787
 1322SOL    HW2 4102   1.063   1.790   0.392 -1.3048 -1.8207 -1.8212
 1323SOL     OW 4103   2.683   4.979   0.773 -0.1991  0.4693  0.3481
 1323SOL    HW1 4104   2.714   4.889   0.782 -0.8543  0.1488 -0.5218
 1323SOL    HW2 4105   2.588   4.973   0.786 -0.3753  0.8766 -0.7001
 1324SOL     OW 4106   2.779   1.768   1.529 -0.4337 -0.6921 -0.2444
 1324SOL    HW1 4107   2.822   1.780   1.445 -0.0308  0.0554  0.0588
 1324SOL    HW2 4108   2.727   1.848   1.540  1.1577  0.2210  1.1610
 1325SOL     OW 4109   0.214   3.445   4.739  0.4609  0.6534 -0.2989
 1325SOL    HW1 4110   0.196   3.530   4.779  1.5870  2.5638 -3.4147
 1325SOL    HW2 4111   0.309   3.435   4.746  0.4462  0.1236 -0.7956
 1326SOL     OW 4112   3.782   4.297   0.531 -0.2641 -0.2047  0.1156
 1326SOL    HW1 4113   3.704   4.326   0.577 -0.8491  0.3595 -1.1588
 1326SOL    HW2 4114   3.770   4.330   0.441  1.5267  0.0888 -0.0600
 1327SOL     OW 4115   2.247   3.564   3.370 -0.4958  0.3917 -0.5647
 1327SOL    HW1 4116   2.312   3.496   3.355 -1.8858 -1.3561  0.8067
 1327SOL    HW2 4117   2.290   3.627   3.428  0.7710  0.6404 -1.7407
 1328SOL     OW 4118   3.583   4.160   0.679 -0.2406  0.0261 -0.9492
 1328SOL    HW1 4119   3.503   4.149   0.731 -0.8096  1.3711 -1.4948
 1328SOL    HW2 4120   3.560   4.126   0.592 -0.2565  0.4613 -1.1205
 1329SOL     OW 4121   4.538   1.263   1.595  0.4714  0.6540  0.8673
 1329SOL    HW1 4122   4.501   1.310   1.670  2.4377  1.8795  1.1681
 1329SOL    HW2 4123   4.566   1.332   1.535  2.8890 -0.0814  1.0258
 1330SOL     OW 4124   1.130   0.187   0.092  0.3756 -0.6830  0.3300
 1330SOL    HW1 4125   1.212   0.143   0.111  1.1710  0.6503  0.1313
 1330SOL    HW2 4126   1.094   0.211   0.178  0.1192 -1.3839  0.4209
 1331SOL     OW 4127   2.547   1.947   1.580 -0.5727  0.4804  0.1121
 1331SOL    HW1 4128   2.460   1.910   1.570 -0.3913 -0.0855  0.5426
 1331SOL    HW2 4129   2.550   2.020   1.518 -0.5293 -0.9750 -1.6813
 1332SOL     OW 4130   3.395   1.389   2.215  0.0065 -0.6562 -0.1306
 1332SOL    HW1 4131   3.490   1.388   2.224 -0.0780 -0.7725  0.8409
 1332SOL    HW2 4132   3.373   1.482   2.208  0.0927 -0.5571  0.8476
 1333SOL     OW 4133   3.395   2.365   2.340  0.1239 -0.6358 -0.0215
 1333SOL    HW1 4134   3.302   2.355   2.320  0.1856  1.6576 -2.0324
 1333SOL    HW2 4135   3.415   2.456   2.315  2.8670 -1.0035  0.5043
 1334SOL     OW 4136   3.687   4.588   2.677  0.4657  0.1503  0.2440
 1334SOL    HW1 4137   3.627   4.520   2.644 -0.2983  0.0845  1.6995
 1334SOL    HW2 4138   3.717   4.633   2.598 -2.0604  0.6633 -0.5311
 1335SOL     OW 4139   3.094   1.903   1.568  0.1307 -0.1351  0.0819
 1335SOL    HW1 4140   3.158   1.857   1.514  0.5149  1.7875 -1.1897
 1335SOL    HW2 4141   3.021   1.921   1.509 -1.5633 -2.0634  1.4403
 1336SOL     OW 4142   2.751   0.998   0.324 -0.4072  0.5025  0.1144
 1336SOL    HW1 4143   2.701   0.974   0.246 -0.4408  0.2157  0.2240
 1336SOL    HW2 4144   2.798   1.078   0.298 -0.2786  0.3103 -0.2555
 1337SOL     OW 4145   0.889   4.401   2.130  0.0744  0.1713  0.0038
 1337SOL    HW1 4146   0.983   4.411   2.117 -0.1293  0.0952 -1.7589
 1337SOL    HW2 4147   0.851   4.408   2.042 -1.7134  1.6788  0.8273
 1338SOL     OW 4148   3.886   1.489   1.620 -0.2992  0.5048  0.2395
 1338SOL    HW1 4149   3.795   1.462   1.630  0.1825 -1.4816 -0.4558
 1338SOL    HW2 4150   3.881   1.570   1.569 -1.8130  2.2879  2.9613
 1339SOL     OW 4151   3.266   1.338   2.992  0.7934  0.0693  0.2865
 1339SOL    HW1 4152   3.326   1.376   3.057  1.3445 -4.1058  2.5895
 1339SOL    HW2 4153   3.318   1.334   2.912  1.7031  1.2412  0.7748
 1340SOL     OW 4154   3.269   0.299   2.374  0.2425 -0.8524 -0.5743
 1340SOL    HW1 4155   3.179   0.275   2.397  1.3311 -1.9304  3.3374
 1340SOL    HW2 4156   3.270   0.394   2.376 -0.9336 -0.8052 -1.3551
 1341SOL     OW 4157   1.214   2.169   3.619 -0.0535  0.4721 -0.3437
 1341SOL    HW1 4158   1.268   2.128   3.552  1.2731  0.3031  0.7782
 1341SOL    HW2 4159   1.272   2.233   3.661 -1.3958  1.8821 -0.5374
 1342SOL     OW 4160   4.510   3.745   4.806 -0.0801 -0.5155 -0.4731
 1342SOL    HW1 4161   4.479   3.656   4.789  1.7811 -0.9841 -1.7791
 1342SOL    HW2 4162   4.482   3.795   4.730 -0.5616 -0.1324 -0.0466
 1343SOL     OW 4163   4.089   4.558   2.055  0.6799  0.1111 -0.0887
 1343SOL    HW1 4164   4.064   4.474   2.017  2.2361 -0.7686  0.7440
 1343SOL    HW2 4165   4.109   4.613   1.979  1.7985 -0.9836 -0.6362
 1344SOL     OW 4166   4.831   1.452   1.868 -0.2072 -0.3107  0.0578
 1344SOL    HW1 4167   4.824   1.357   1.868 -0.1256 -0.3166  0.0473
 1344SOL    HW2 4168   4.753   1.482   1.914  0.0184 -0.4005  0.5053
 1345SOL     OW 4169   3.962   3.898   0.118 -1.2146  0.2260  0.5356
 1345SOL    HW1 4170   3.944   3.866   0.206 -1.0209  0.8541  0.8098
 1345SOL    HW2 4171   4.057   3.906   0.114 -1.1894 -0.1946  0.1209
 1346SOL     OW 4172   1.175   0.163   2.962  0.1514 -0.6325  0.1787
 1346SOL    HW1 4173   1.175   0.095   3.030 -1.3060 -1.7327 -0.8425
 1346SOL    HW2 4174   1.178   0.113   2.880 -0.3695  0.5823 -0.5945
 1347SOL     OW 4175   2.011   3.768   4.480  0.1005 -0.3940  0.3327
 1347SOL    HW1 4176   2.020   3.853   4.523  1.4395  0.1054 -0.8578
 1347SOL    HW2 4177   1.959   3.785   4.402  0.2075 -0.6999  0.1942
 1348SOL     OW 4178   3.570   2.410   3.585 -0.0152  0.7826  0.4373
 1348SOL    HW1 4179   3.611   2.468   3.649  2.9101 -0.1552 -0.4535
 1348SOL    HW2 4180   3.570   2.324   3.627  0.2073  0.5182 -0.0922
 1349SOL     OW 4181   4.163   2.208   1.338  0.2325  1.0070 -0.5444
 1349SOL    HW1 4182   4.253   2.191   1.363 -0.1282 -0.5342 -0.1992
 1349SOL    HW2 4183   4.163   2.208   1.243  0.0967 -2.2798 -0.6469
 1350SOL     OW 4184   4.667   2.570   3.006  0.1962 -0.3147  0.1610
 1350SOL    HW1 4185   4.614   2.495   3.031  1.0910 -0.3134  2.2458
 1350SOL    HW2 4186   4.606   2.629   2.961 -1.0764 -1.2057  0.6714
 1351SOL     OW 4187   0.765   2.921   1.845 -0.3829  0.2436  0.0571
 1351SOL    HW1 4188   0.673   2.945   1.835  0.1878  2.8201  0.2592
 1351SOL    HW2 4189   0.772   2.889   1.935 -1.0184  0.2960  0.1325
 1352SOL     OW 4190   0.153   4.712   0.502  0.1047  0.1703  0.2759
 1352SOL    HW1 4191   0.247   4.731   0.508 -0.2543  1.9866  0.8073
 1352SOL    HW2 4192   0.136   4.710   0.408  0.3944  1.5433  0.1693
 1353SOL     OW 4193   1.145   1.892   3.673  0.8586 -0.1659 -0.0796
 1353SOL    HW1 4194   1.208   1.832   3.633  1.0601 -0.1076  0.1448
 1353SOL    HW2 4195   1.178   1.979   3.652  0.8832 -0.1352  0.0841
 1354SOL     OW 4196   0.951   2.451   3.869 -0.0646  0.4518 -0.4021
 1354SOL    HW1 4197   0.960   2.371   3.922 -0.4571  1.4398  1.2245
 1354SOL    HW2 4198   0.968   2.422   3.779 -1.1752 -1.6687 -0.0056
 1355SOL     OW 4199   1.357   4.717   0.304 -0.2399 -0.0521  0.3972
 1355SOL    HW1 4200   1.394   4.780   0.365  1.3514 -1.4273  0.9019
 1355SOL    HW2 4201   1.329   4.771   0.229  0.8801  1.2693  0.8864
 1356SOL     OW 4202   2.604   3.720   0.726 -0.2378  0.0960  0.1333
 1356SOL    HW1 4203   2.663   3.735   0.799 -0.5159  1.5620  0.0823
 1356SOL    HW2 4204   2.642   3.646   0.679  2.0655  1.5411 -0.3942
 1357SOL     OW 4205   2.246   1.084   2.914 -0.2883  0.1960  0.4482
 1357SOL    HW1 4206   2.299   1.014   2.951  0.9750  1.1899  0.5972
 1357SOL    HW2 4207   2.193   1.042   2.847  2.9313 -0.4032 -1.9618
 1358SOL     OW 4208   0.427   4.096   2.794 -0.2776 -0.4071 -0.0628
 1358SOL    HW1 4209   0.424   4.172   2.852  0.3855 -1.2130  1.0717
 1358SOL    HW2 4210   0.495   4.117   2.730 -0.4393  0.1501 -0.0580
 1359SOL     OW 4211   0.139   4.455   1.129  0.4841 -0.2391  0.1391
 1359SOL    HW1 4212   0.196   4.469   1.204  0.9279  1.5534 -0.4565
 1359SOL    HW2 4213   0.054   4.435   1.166  0.9490 -0.5033  1.0938
 1360SOL     OW 4214   0.305   0.316   4.116 -0.3475  0.7759  0.0164
 1360SOL    HW1 4215   0.349   0.248   4.066 -1.3287 -1.3078  1.7726
 1360SOL    HW2 4216   0.359   0.394   4.105  0.8990 -0.2915 -2.0009
 1361SOL     OW 4217   0.782   3.585   1.923 -0.0594  0.0581 -0.2404
 1361SOL    HW1 4218   0.712   3.571   1.859  0.0755 -1.3879 -0.0871
 1361SOL    HW2 4219   0.742   3.642   1.989 -1.5883 -1.8158  0.5560
 1362SOL     OW 4220   0.541   0.051   1.670 -0.0928 -0.3356 -0.0201
 1362SOL    HW1 4221   0.525  -0.041   1.692 -0.2629  0.0269  1.5240
 1362SOL    HW2 4222   0.577   0.089   1.751  0.0956  0.9226 -0.6681
 1363SOL     OW 4223   3.389   2.106   1.084 -0.0006 -0.0432 -0.5741
 1363SOL    HW1 4224   3.313   2.053   1.061  0.2509  0.0626 -1.7244
 1363SOL    HW2 4225   3.371   2.137   1.173 -1.2614 -0.0921 -0.7936
 1364SOL     OW 4226   1.900   1.454   0.847 -0.0514 -0.3105  0.2617
 1364SOL    HW1 4227   1.820   1.499   0.820  0.5835  0.2080 -0.7692
 1364SOL    HW2 4228   1.898   1.371   0.798  0.7273  0.3090 -0.8551
 1365SOL     OW 4229   1.182   4.138   4.034 -0.4666 -0.0657 -0.3079
 1365SOL    HW1 4230   1.119   4.182   3.978 -0.4547  1.9364  1.1569
 1365SOL    HW2 4231   1.265   4.145   3.988 -0.4427  1.6025 -0.0566
 1366SOL     OW 4232   2.467   3.758   0.085 -0.6983  0.2900 -0.1525
 1366SOL    HW1 4233   2.438   3.804   0.006 -1.1224  0.8839  0.3429
 1366SOL    HW2 4234   2.508   3.677   0.052 -1.5146  0.1859 -0.9431
 1367SOL     OW 4235   3.956   3.439   3.909  0.0231 -0.5758  0.0959
 1367SOL    HW1 4236   3.952   3.506   3.978  1.9904  0.0411 -0.3308
 1367SOL    HW2 4237   3.869   3.399   3.910 -0.9498  1.3992  0.9551
 1368SOL     OW 4238   1.792   4.217   3.931 -0.0931 -0.1597 -0.1572
 1368SOL    HW1 4239   1.836   4.167   3.862 -1.9354 -0.0456 -1.4843
 1368SOL    HW2 4240   1.782   4.304   3.894  2.2856  1.0791  1.7950
 1369SOL     OW 4241   0.027   2.462   0.739  0.0703  0.1756  0.1102
 1369SOL    HW1 4242   0.080   2.539   0.716 -0.9017  0.7776 -0.1629
 1369SOL    HW2 4243   0.092   2.394   0.760  0.9729  1.6498  2.5096
 1370SOL     OW 4244   0.839   3.962   0.022  0.7010  0.2417  0.4872
 1370SOL    HW1 4245   0.909   3.958   0.088  0.3678 -0.1428  0.8261
 1370SOL    HW2 4246   0.766   4.004   0.067  0.0776 -1.0774  0.7439
 1371SOL     OW 4247   1.488   3.502   4.601  0.2228  0.2048 -0.2405
 1371SOL    HW1 4248   1.449   3.538   4.680  2.7270  1.3320  0.5788
 1371SOL    HW2 4249   1.477   3.570   4.535 -1.4434 -0.5462 -0.7935
 1372SOL     OW 4250   4.129   4.727   3.806 -0.1205  0.2870 -0.2406
 1372SOL    HW1 4251   4.217   4.697   3.787 -0.1801 -0.4731  0.5962
 1372SOL    HW2 4252   4.129   4.820   3.781  0.8902  0.2794 -0.3061
 1373SOL     OW 4253   3.318   4.767   1.456  0.3899  0.1888 -0.0418
 1373SOL    HW1 4254   3.326   4.764   1.552  1.0026  0.8395 -0.0633
 1373SOL    HW2 4255   3.224   4.770   1.440  0.2980  1.7183  0.6189
 1374SOL     OW 4256   3.107   3.081   0.104 -0.3814 -0.3369 -0.1679
 1374SOL    HW1 4257   3.135   3.171   0.123 -3.1888  0.8376 -1.0838
 1374SOL    HW2 4258   3.015   3.079   0.128 -0.4843 -2.8929 -0.5462
 1375SOL     OW 4259   2.871   1.703   3.434 -0.4593 -0.1598 -0.0954
 1375SOL    HW1 4260   2.818   1.781   3.414 -0.5489  0.3333  1.8674
 1375SOL    HW2 4261   2.959   1.725   3.404 -0.0525  1.5208  2.0650
 1376SOL     OW 4262   3.247   0.551   0.172 -0.1547 -0.5361 -0.1236
 1376SOL    HW1 4263   3.187   0.621   0.197  1.7833  1.3931 -0.6151
 1376SOL    HW2 4264   3.191   0.473   0.165 -2.7249  1.2906 -1.3436
 1377SOL     OW 4265   3.704   2.622   4.634 -0.1290  0.3920 -0.0254
 1377SOL    HW1 4266   3.623   2.617   4.685 -0.5278 -1.9248 -0.7676
 1377SOL    HW2 4267   3.772   2.589   4.693  0.2106  1.8077  0.4091
 1378SOL     OW 4268   2.528   2.137   1.998 -0.4720  0.4869  0.5467
 1378SOL    HW1 4269   2.534   2.232   1.994  2.5830  0.3371 -1.3249
 1378SOL    HW2 4270   2.587   2.106   1.930  0.7970 -2.7781  2.8673
 1379SOL     OW 4271   4.344   3.706   0.839  0.2692  0.2380  0.3777
 1379SOL    HW1 4272   4.360   3.613   0.856  0.5099  0.2658  0.3176
 1379SOL    HW2 4273   4.255   3.722   0.870 -0.4191 -0.3971 -1.1567
 1380SOL     OW 4274   0.527   1.164   2.391  0.4451 -0.7203 -0.3523
 1380SOL    HW1 4275   0.453   1.115   2.353 -0.4640 -0.0484  0.5098
 1380SOL    HW2 4276   0.587   1.096   2.422  0.4857 -1.2813 -1.5714
 1381SOL     OW 4277   1.397   4.938   1.361 -0.0152  0.0436 -0.8953
 1381SOL    HW1 4278   1.356   5.009   1.410 -1.6810 -0.4700 -1.4881
 1381SOL    HW2 4279   1.433   4.880   1.429  0.0618  0.6839 -0.3725
 1382SOL     OW 4280   4.453   1.091   2.637 -0.0904 -0.3137 -0.0588
 1382SOL    HW1 4281   4.358   1.078   2.633 -0.2455  0.9865 -2.8825
 1382SOL    HW2 4282   4.483   1.023   2.698 -2.5996 -2.0673 -0.5742
 1383SOL     OW 4283   0.694   0.871   1.888 -0.2383 -0.0870 -0.0149
 1383SOL    HW1 4284   0.642   0.819   1.826  2.1881 -0.0647 -2.2249
 1383SOL    HW2 4285   0.684   0.825   1.972 -1.4919 -1.6817 -0.9668
 1384SOL     OW 4286   1.663   1.450   2.385  0.6864  0.0686  0.5396
 1384SOL    HW1 4287   1.634   1.405   2.306  0.9304  0.5118  0.2003
 1384SOL    HW2 4288   1.703   1.531   2.354  0.1020  0.6039  1.1558
 1385SOL     OW 4289   2.807   1.680   4.868  0.3098  0.1811 -0.2529
 1385SOL    HW1 4290   2.827   1.711   4.780  1.8135  0.4118  0.1439
 1385SOL    HW2 4291   2.797   1.760   4.920 -1.0812  0.0580 -0.2983
 1386SOL     OW 4292   5.023   1.404   1.641  0.3439 -0.2982  0.1335
 1386SOL    HW1 4293   4.978   1.480   1.605 -0.1864  0.3819  2.1056
 1386SOL    HW2 4294   4.968   1.330   1.616 -1.3833  0.4161  1.6403
 1387SOL     OW 4295   4.614   3.468   1.532  0.2527 -0.2095 -0.3081
 1387SOL    HW1 4296   4.604   3.428   1.446 -1.1781 -2.3045  0.7237
 1387SOL    HW2 4297   4.676   3.411   1.578  1.4959  1.2463 -0.1114
 1388SOL     OW 4298   4.409   1.800   1.407  0.4456  0.1523 -0.0748
 1388SOL    HW1 4299   4.355   1.754   1.343 -0.4668  1.3874 -0.2303
 1388SOL    HW2 4300   4.376   1.771   1.492  1.2682 -1.0379 -0.1399
 1389SOL     OW 4301   3.351   3.510   0.635  0.0528  0.1500  0.6039
 1389SOL    HW1 4302   3.419   3.453   0.601 -0.3750 -0.2032  0.3255
 1389SOL    HW2 4303   3.343   3.580   0.571 -1.6294 -1.1773 -0.7420
 1390SOL     OW 4304   0.015   1.246   2.615 -0.2294 -0.5024  0.6215
 1390SOL    HW1 4305  -0.029   1.328   2.636  1.4159 -0.0073  2.3122
 1390SOL    HW2 4306   0.101   1.272   2.581 -0.7583 -1.4817 -1.7320
 1391SOL     OW 4307   3.388   4.747   4.080 -0.0090 -0.0542 -1.0074
 1391SOL    HW1 4308   3.316   4.773   4.022 -0.0656 -1.2862 -1.5208
 1391SOL    HW2 4309   3.346   4.732   4.165 -0.5872 -1.8065 -1.5564
 1392SOL     OW 4310   2.422   3.097   3.513  0.2762 -0.2821 -0.1628
 1392SOL    HW1 4311   2.430   3.002   3.522 -0.4701 -0.5781 -2.1637
 1392SOL    HW2 4312   2.483   3.120   3.443 -0.7252  0.4770 -0.8102
 1393SOL     OW 4313   4.469   4.992   4.269  0.5082  0.2959  0.0744
 1393SOL    HW1 4314   4.524   4.961   4.197 -0.0845 -2.1975  0.5982
 1393SOL    HW2 4315   4.510   4.955   4.347 -0.0401  1.2288  0.8223
 1394SOL     OW 4316   4.733   2.925   1.336  0.4108 -0.5111 -0.0558
 1394SOL    HW1 4317   4.660   2.905   1.395 -0.3205  0.9949 -0.3967
 1394SOL    HW2 4318   4.709   2.884   1.253 -1.2245  1.8088 -0.8401
 1395SOL     OW 4319   2.454   1.551   4.487 -0.0567 -0.0528  0.0446
 1395SOL    HW1 4320   2.519   1.593   4.544  0.5089 -1.6674  0.6505
 1395SOL    HW2 4321   2.415   1.482   4.542 -1.1644 -0.1431 -0.8116
 1396SOL     OW 4322   0.451   2.627   4.990  0.7109  0.0762  0.4895
 1396SOL    HW1 4323   0.410   2.597   4.909  1.9707 -3.3226  0.9182
 1396SOL    HW2 4324   0.543   2.638   4.967  0.4634  3.0811  0.6098
 1397SOL     OW 4325   0.677   2.734   2.739  0.7566 -0.0355  0.2478
 1397SOL    HW1 4326   0.760   2.762   2.778  0.6872  0.9361 -0.2696
 1397SOL    HW2 4327   0.616   2.731   2.812  1.9481 -4.1401  1.3589
 1398SOL     OW 4328   1.111   4.038   2.083  0.9118  0.6172 -0.5266
 1398SOL    HW1 4329   1.169   4.097   2.035  2.0808  2.3191  2.6722
 1398SOL    HW2 4330   1.156   4.024   2.167 -0.8447 -2.3490  0.0549
 1399SOL     OW 4331   0.080   0.418   0.198  0.3272 -0.0412  0.6254
 1399SOL    HW1 4332   0.161   0.466   0.213  0.5186 -0.4709  1.0157
 1399SOL    HW2 4333   0.015   0.462   0.253 -0.1288  1.3613 -0.9748
 1400SOL     OW 4334   4.162   0.072   0.485 -0.4094 -0.1916 -0.2410
 1400SOL    HW1 4335   4.129   0.054   0.573 -0.4341 -0.6878 -0.3512
 1400SOL    HW2 4336   4.250   0.035   0.483 -0.7424 -0.9990 -0.7073
 1401SOL     OW 4337   0.665   0.850   2.753 -0.0104  0.8030 -0.1882
 1401SOL    HW1 4338   0.572   0.871   2.751 -0.5952 -1.4188  0.3911
 1401SOL    HW2 4339   0.684   0.836   2.846  0.9872  1.5022 -0.2767
 1402SOL     OW 4340   3.178   0.175   1.631 -0.2969  0.9489 -0.9532
 1402SOL    HW1 4341   3.227   0.221   1.563  0.1877  1.5886 -0.1854
 1402SOL    HW2 4342   3.230   0.186   1.710 -0.6737 -0.0892 -0.5399
 1403SOL     OW 4343   1.487   2.602   1.511 -0.4149  0.4414 -0.1983
 1403SOL    HW1 4344   1.434   2.522   1.518  1.3137 -0.8937 -1.3558
 1403SOL    HW2 4345   1.434   2.661   1.458 -0.2318 -1.4148 -2.6415
 1404SOL     OW 4346   2.690   0.865   4.234  0.0867  0.5345  0.3309
 1404SOL    HW1 4347   2.686   0.938   4.295  0.6377  0.6087  0.2783
 1404SOL    HW2 4348   2.606   0.867   4.189  0.1258  1.1733  0.2851
 1405SOL     OW 4349   2.290   3.773   2.234  0.0786  0.0199  0.1701
 1405SOL    HW1 4350   2.366   3.762   2.290  1.3006  0.3090 -1.3829
 1405SOL    HW2 4351   2.303   3.710   2.163 -0.8887  0.3950 -0.3606
 1406SOL     OW 4352   4.591   4.515   2.064  0.5072 -0.2334 -0.1443
 1406SOL    HW1 4353   4.653   4.533   2.135  1.6606  0.7282 -1.3363
 1406SOL    HW2 4354   4.568   4.601   2.030  0.3786 -0.6920 -1.2648
 1407SOL     OW 4355   3.255   2.767   1.233 -0.2747 -1.1284  0.1253
 1407SOL    HW1 4356   3.342   2.804   1.250 -1.0803 -0.1151  2.3448
 1407SOL    HW2 4357   3.273   2.684   1.189  1.9051 -1.8523  2.1769
 1408SOL     OW 4358   0.876   0.250   3.687 -0.6940  0.1359 -0.1131
 1408SOL    HW1 4359   0.850   0.266   3.596 -0.2293 -0.4916 -0.3685
 1408SOL    HW2 4360   0.940   0.179   3.681  0.4474  1.0681  0.5718
 1409SOL     OW 4361   4.216   2.819   1.376  0.0719  0.2367  0.3218
 1409SOL    HW1 4362   4.248   2.830   1.466  0.8706  1.8799 -0.1360
 1409SOL    HW2 4363   4.121   2.806   1.386  0.3488 -1.2675  1.4783
 1410SOL     OW 4364   3.144   4.023   0.361 -0.3612  0.4855  0.2609
 1410SOL    HW1 4365   3.101   3.953   0.313  2.0010 -1.6079  0.9647
 1410SOL    HW2 4366   3.136   4.100   0.305 -3.2481 -0.2015 -0.4400
 1411SOL     OW 4367   0.302   2.440   2.637 -0.3147 -0.3565 -0.3481
 1411SOL    HW1 4368   0.395   2.450   2.658  0.3434  0.4780 -3.2396
 1411SOL    HW2 4369   0.285   2.346   2.649  1.0450 -0.6203 -0.3303
 1412SOL     OW 4370   1.358   4.740   3.841  0.0365 -0.6009  0.1818
 1412SOL    HW1 4371   1.401   4.668   3.793  0.6994  0.0232 -0.1885
 1412SOL    HW2 4372   1.320   4.698   3.918  0.5331 -1.3281  0.0458
 1413SOL     OW 4373   0.434   0.109   3.248 -0.2030 -0.3274  0.5528
 1413SOL    HW1 4374   0.505   0.047   3.263 -1.3304 -1.7677  0.2182
 1413SOL    HW2 4375   0.359   0.054   3.225 -1.5630  1.0872  1.3871
 1414SOL     OW 4376   3.177   4.652   2.320 -0.4831 -0.1358  0.3135
 1414SOL    HW1 4377   3.172   4.747   2.315 -2.3624 -0.1314  1.3425
 1414SOL    HW2 4378   3.270   4.634   2.336 -0.1420  1.5361  0.4103
 1415SOL     OW 4379   0.808   3.192   2.324  0.6309 -0.5138  0.1805
 1415SOL    HW1 4380   0.879   3.210   2.386  0.9334 -2.0082  0.2997
 1415SOL    HW2 4381   0.775   3.279   2.300  1.6163  0.1560  1.1397
 1416SOL     OW 4382  -0.025   0.809   2.048  0.1443 -0.2770  0.5846
 1416SOL    HW1 4383   0.056   0.859   2.055  0.2854 -0.6797  2.1946
 1416SOL    HW2 4384   0.003   0.720   2.026  0.0135 -0.0925 -0.3924
 1417SOL     OW 4385   1.466   1.940   3.949  0.2037 -0.4711  0.6204
 1417SOL    HW1 4386   1.408   1.880   3.995  0.3596 -0.9372  0.2130
 1417SOL    HW2 4387   1.456   2.023   3.995 -0.4861 -0.6503  0.7984
 1418SOL     OW 4388   0.379   4.566   0.821 -0.5555  0.3016  0.3558
 1418SOL    HW1 4389   0.364   4.543   0.730  1.3565 -2.0481  0.5342
 1418SOL    HW2 4390   0.428   4.649   0.817  0.7930 -0.5085 -0.8718
 1419SOL     OW 4391   0.260   2.695   4.000  0.0542  0.4484 -0.0228
 1419SOL    HW1 4392   0.346   2.726   4.028  0.2333 -0.5790  0.6020
 1419SOL    HW2 4393   0.198   2.750   4.050  0.2903  2.0919 -1.4427
 1420SOL     OW 4394   1.285   4.293   3.477 -0.3014 -0.5623 -0.1993
 1420SOL    HW1 4395   1.327   4.360   3.423  1.7627 -1.1084  0.6621
 1420SOL    HW2 4396   1.308   4.315   3.567  0.0881 -2.1826  0.1319
 1421SOL     OW 4397   0.319   1.623   3.338  0.1644 -0.5399  0.1315
 1421SOL    HW1 4398   0.285   1.572   3.264 -1.0619  0.5027 -0.0556
 1421SOL    HW2 4399   0.404   1.583   3.357 -0.3015 -1.9929 -0.6540
 1422SOL     OW 4400   2.219   0.413   4.056 -0.0586  0.1663 -0.4263
 1422SOL    HW1 4401   2.289   0.360   4.095  0.1796 -1.4801 -2.8945
 1422SOL    HW2 4402   2.265   0.489   4.020  0.2240 -0.0474 -0.5249
 1423SOL     OW 4403   2.938   0.587   3.046 -0.4450  0.5166  0.1215
 1423SOL    HW1 4404   2.870   0.646   3.014  1.0637  0.9844 -2.4646
 1423SOL    HW2 4405   2.900   0.499   3.036 -1.1661  0.8337  0.0151
 1424SOL     OW 4406   1.848   2.808   4.043 -0.5115  0.4375 -0.6795
 1424SOL    HW1 4407   1.860   2.731   3.988  1.9197  0.1639  0.1146
 1424SOL    HW2 4408   1.812   2.875   3.984 -0.1420 -0.5066 -2.0175
 1425SOL     OW 4409   3.342   3.878   2.038  0.2827  0.6269  0.2536
 1425SOL    HW1 4410   3.249   3.864   2.058  0.3696 -0.4954 -0.0686
 1425SOL    HW2 4411   3.341   3.944   1.969 -0.3798 -0.4022 -0.7667
 1426SOL     OW 4412   2.428   4.039   3.857  0.6233 -0.8914 -0.0494
 1426SOL    HW1 4413   2.495   3.982   3.894  0.7265  0.2905  1.6878
 1426SOL    HW2 4414   2.347   4.013   3.901  0.5480 -0.1801  0.2484
 1427SOL     OW 4415   3.485   0.388   3.970 -0.3321  0.2950 -0.0229
 1427SOL    HW1 4416   3.540   0.456   3.932  0.6245  0.4167  1.4910
 1427SOL    HW2 4417   3.395   0.419   3.956  0.0920  2.1815  1.1292
 1428SOL     OW 4418   1.804   2.069   0.207  0.5706 -0.7422 -0.4864
 1428SOL    HW1 4419   1.834   2.103   0.292 -0.2464 -0.2582 -0.3749
 1428SOL    HW2 4420   1.834   1.979   0.206  1.0914 -0.5835  0.0760
 1429SOL     OW 4421   0.736   0.529   1.319  0.3232  0.1931 -0.1611
 1429SOL    HW1 4422   0.646   0.552   1.340  0.1128 -1.1949  0.5871
 1429SOL    HW2 4423   0.729   0.444   1.274  1.1981  0.4981 -0.9039
 1430SOL     OW 4424   1.224   0.978   3.294 -0.0250 -0.5374 -0.2166
 1430SOL    HW1 4425   1.244   0.941   3.380 -0.6001 -1.4705 -0.4673
 1430SOL    HW2 4426   1.232   1.073   3.306  0.8696 -0.7007  0.6058
 1431SOL     OW 4427   2.374   1.105   0.198 -0.0519 -0.8298 -0.8968
 1431SOL    HW1 4428   2.422   1.061   0.128 -1.1479 -1.5348 -1.2372
 1431SOL    HW2 4429   2.392   1.052   0.276 -0.6704 -1.4030 -1.1307
 1432SOL     OW 4430   2.302   0.435   1.544 -0.4832 -0.2019  0.3865
 1432SOL    HW1 4431   2.393   0.405   1.549 -1.0317 -1.9066  0.8665
 1432SOL    HW2 4432   2.297   0.486   1.464  1.2447  1.2307  1.1157
 1433SOL     OW 4433   2.777   1.735   1.826  0.2883 -0.0699  0.1407
 1433SOL    HW1 4434   2.782   1.760   1.734 -0.9492 -0.3957 -0.0425
 1433SOL    HW2 4435   2.707   1.669   1.829  2.0907 -2.0511  0.9135
 1434SOL     OW 4436   0.396   3.121   2.485  0.3278  0.0951  0.0429
 1434SOL    HW1 4437   0.400   3.039   2.534 -2.3399 -0.3768 -0.3822
 1434SOL    HW2 4438   0.427   3.098   2.397 -0.8295 -0.6146 -0.2004
 1435SOL     OW 4439   1.478   2.740   3.045 -0.8563 -0.7945  0.1942
 1435SOL    HW1 4440   1.463   2.781   2.959 -2.3413  2.2775  1.7586
 1435SOL    HW2 4441   1.549   2.791   3.083 -1.3222 -1.0334  1.4067
 1436SOL     OW 4442   2.976   2.810   0.331  0.1692  0.6267  0.7360
 1436SOL    HW1 4443   3.049   2.749   0.329  0.4312  0.8067  2.7121
 1436SOL    HW2 4444   2.937   2.804   0.244  3.4249  1.6789 -0.9526
 1437SOL     OW 4445   2.566   0.737   0.342 -0.2888  0.0914 -0.7115
 1437SOL    HW1 4446   2.486   0.687   0.327  0.4058 -1.5364  0.6156
 1437SOL    HW2 4447   2.566   0.805   0.275 -3.7235  1.4028  0.4325
 1438SOL     OW 4448   2.114   0.718   3.778 -0.1225 -0.0622  0.3201
 1438SOL    HW1 4449   2.092   0.794   3.724  2.6325 -0.3040 -1.3197
 1438SOL    HW2 4450   2.030   0.693   3.818 -1.6804  2.0677 -1.3257
 1439SOL     OW 4451   4.607   0.894   0.256  0.8513 -0.4495 -0.1150
 1439SOL    HW1 4452   4.566   0.978   0.233 -0.6839 -1.3981 -1.0893
 1439SOL    HW2 4453   4.581   0.835   0.185 -1.5844 -2.8031  2.4594
 1440SOL     OW 4454   0.609   2.361   2.725 -0.0047  0.3171 -0.0505
 1440SOL    HW1 4455   0.555   2.420   2.777  1.2596 -0.7649  2.7026
 1440SOL    HW2 4456   0.674   2.417   2.684 -0.6020  1.1340  0.1013
 1441SOL     OW 4457   1.652   1.316   1.015 -0.1970 -0.3146  0.0171
 1441SOL    HW1 4458   1.621   1.344   0.928  0.0620 -1.0002 -0.3023
 1441SOL    HW2 4459   1.747   1.311   1.005 -0.2296 -1.1429  0.1155
 1442SOL     OW 4460   3.578   3.966   1.845  0.4370 -0.2468  0.4710
 1442SOL    HW1 4461   3.502   4.006   1.887 -0.0283  1.1711 -1.5450
 1442SOL    HW2 4462   3.557   3.967   1.751  2.7143 -0.3072 -0.1012
 1443SOL     OW 4463   4.604   3.240   4.516  0.8145 -0.2918 -0.2314
 1443SOL    HW1 4464   4.651   3.322   4.501 -1.3356  0.4534 -4.4056
 1443SOL    HW2 4465   4.524   3.266   4.562  1.0464 -0.4300  0.2651
 1444SOL     OW 4466   3.202   4.665   3.819  0.0621  0.1593  0.6798
 1444SOL    HW1 4467   3.268   4.599   3.799  0.4731  0.5279  0.8214
 1444SOL    HW2 4468   3.230   4.743   3.771 -0.3494  0.2760  0.6201
 1445SOL     OW 4469   4.135   1.770   2.479  0.1611  0.6168  0.7059
 1445SOL    HW1 4470   4.078   1.730   2.413  2.0724 -1.3882  0.1457
 1445SOL    HW2 4471   4.111   1.727   2.561  0.6668 -0.0633  0.5095
 1446SOL     OW 4472   0.575   0.322   4.297 -0.1368  0.1802 -0.0716
 1446SOL    HW1 4473   0.514   0.382   4.340 -1.8747 -0.6382 -1.2751
 1446SOL    HW2 4474   0.600   0.367   4.216 -0.2608 -0.0754 -0.2540
 1447SOL     OW 4475   3.264   2.614   2.644  0.8112  0.1333  0.2158
 1447SOL    HW1 4476   3.353   2.587   2.669  1.3572  1.0353 -0.7226
 1447SOL    HW2 4477   3.269   2.709   2.636 -0.0411  0.1178 -0.6236
 1448SOL     OW 4478   4.580   2.497   2.568 -0.0522 -0.2087  0.0140
 1448SOL    HW1 4479   4.551   2.409   2.543  0.3516 -0.6850  1.1619
 1448SOL    HW2 4480   4.650   2.482   2.632 -0.2977  0.9455  0.5839
 1449SOL     OW 4481   1.456   2.626   0.751 -0.0152  0.4718  0.4761
 1449SOL    HW1 4482   1.475   2.552   0.810 -1.7645 -0.4370 -0.0217
 1449SOL    HW2 4483   1.531   2.628   0.692  0.4650 -0.3726  1.0161
 1450SOL     OW 4484   4.630   2.123   2.783  0.4029 -0.2303 -0.3870
 1450SOL    HW1 4485   4.651   2.088   2.869  1.0726  2.1678  0.5102
 1450SOL    HW2 4486   4.538   2.102   2.769  0.5934 -1.6572  0.3675
 1451SOL     OW 4487   4.463   4.643   3.126  0.0831  0.5164 -0.5981
 1451SOL    HW1 4488   4.371   4.667   3.131  0.3757  1.3349  2.2261
 1451SOL    HW2 4489   4.463   4.552   3.095 -1.5180  1.0663 -2.3911
 1452SOL     OW 4490   4.465   2.511   0.721  0.3257 -0.8264 -0.4981
 1452SOL    HW1 4491   4.394   2.509   0.786  1.7879  0.2154  1.2486
 1452SOL    HW2 4492   4.465   2.423   0.683 -0.1529 -1.7449  1.4592
 1453SOL     OW 4493   0.594   1.165   4.129 -0.3283 -0.3218 -0.0147
 1453SOL    HW1 4494   0.516   1.219   4.139  0.4493  1.3726 -2.2310
 1453SOL    HW2 4495   0.657   1.203   4.190 -0.7425 -0.7431  0.6893
 1454SOL     OW 4496   3.094   3.041   0.463  0.3757 -0.1844  0.0729
 1454SOL    HW1 4497   3.135   3.117   0.421  0.2472 -0.4560 -0.5552
 1454SOL    HW2 4498   3.085   2.977   0.393  0.0802 -0.6196  0.5030
 1455SOL     OW 4499   2.450   0.730   0.790 -0.0890 -0.3272 -0.3816
 1455SOL    HW1 4500   2.474   0.646   0.828  0.1806  0.2851  0.8697
 1455SOL    HW2 4501   2.531   0.782   0.793 -0.4054  0.1866 -0.5137
 1456SOL     OW 4502   1.397   0.100   0.056 -0.2901 -0.4863 -0.1326
 1456SOL    HW1 4503   1.434   0.124   0.141 -1.3479  2.6248 -0.4103
 1456SOL    HW2 4504   1.471   0.063   0.007  1.4910  1.6726  0.7155
 1457SOL     OW 4505   2.679   0.443   3.241  0.2811 -0.4645  0.1620
 1457SOL    HW1 4506   2.733   0.516   3.272 -0.5751  0.2762 -0.0176
 1457SOL    HW2 4507   2.730   0.403   3.170  0.5992  0.2072  0.0014
 1458SOL     OW 4508   3.878   1.574   4.310  0.4017  0.1080 -0.3162
 1458SOL    HW1 4509   3.846   1.576   4.400  2.0766 -0.1176  0.3213
 1458SOL    HW2 4510   3.817   1.630   4.262 -1.2970 -0.8200  0.6731
 1459SOL     OW 4511   1.396   2.094   3.427 -0.3782  0.4164 -0.0166
 1459SOL    HW1 4512   1.435   2.011   3.456  0.4772  0.3499 -1.2534
 1459SOL    HW2 4513   1.391   2.085   3.332 -0.7067  1.6152 -0.1229
 1460SOL     OW 4514   0.994   2.408   3.568  0.1620  0.6088  0.0488
 1460SOL    HW1 4515   1.018   2.360   3.488 -0.0887  2.5393 -1.2547
 1460SOL    HW2 4516   0.908   2.374   3.591 -0.4377  1.0629 -1.4032
 1461SOL     OW 4517   0.659   4.737   0.308  0.0606 -0.9636  0.2009
 1461SOL    HW1 4518   0.711   4.676   0.255 -1.9253 -1.8825 -0.8167
 1461SOL    HW2 4519   0.593   4.770   0.247 -0.8130 -0.1727  1.5439
 1462SOL     OW 4520   1.653   1.711   4.979 -0.0833 -0.1421 -0.5325
 1462SOL    HW1 4521   1.647   1.805   4.996  1.2937 -0.1245  0.0146
 1462SOL    HW2 4522   1.715   1.703   4.906  0.8465 -0.6568  0.2702
 1463SOL     OW 4523   1.904   0.408   3.662  0.6101 -0.2331 -0.1639
 1463SOL    HW1 4524   1.869   0.319   3.670  0.5559 -0.3998 -1.8049
 1463SOL    HW2 4525   1.999   0.395   3.653  0.7573 -0.0119  0.9408
 1464SOL     OW 4526   4.667   0.728   3.341  0.4348  0.1211  0.0906
 1464SOL    HW1 4527   4.677   0.764   3.253  0.4133  1.4309  0.6058
 1464SOL    HW2 4528   4.689   0.635   3.332 -1.5194 -0.2328 -1.6939
 1465SOL     OW 4529   3.274   3.865   1.297  0.2535  0.4153  0.3937
 1465SOL    HW1 4530   3.317   3.787   1.330 -0.9393 -0.8144 -0.7845
 1465SOL    HW2 4531   3.338   3.904   1.237  0.7292  0.1319  0.7099
 1466SOL     OW 4532   2.287   3.656   3.957  0.2197 -0.3419  0.1526
 1466SOL    HW1 4533   2.236   3.649   3.877  1.1549  1.5380 -0.6612
 1466SOL    HW2 4534   2.316   3.566   3.974  0.0633 -0.7768 -1.6511
 1467SOL     OW 4535   1.960   2.140   1.051 -0.0400  0.2521 -0.0459
 1467SOL    HW1 4536   1.902   2.195   1.103 -2.1263 -1.0053 -0.9268
 1467SOL    HW2 4537   2.045   2.148   1.094 -0.9857  1.6549  1.7014
 1468SOL     OW 4538   3.155   3.634   1.851 -0.0621 -0.3324  0.2090
 1468SOL    HW1 4539   3.113   3.693   1.913 -0.7224  0.2285 -0.7550
 1468SOL    HW2 4540   3.202   3.571   1.906  0.7572  1.1433  1.2482
 1469SOL     OW 4541   4.078   0.838   0.900 -0.6157  0.0864 -0.5571
 1469SOL    HW1 4542   4.120   0.906   0.848  0.4237 -0.4881 -0.4783
 1469SOL    HW2 4543   3.999   0.816   0.851 -0.6667  0.9357 -0.8768
 1470SOL     OW 4544   2.156   3.596   1.705 -0.2190 -0.0893 -0.1323
 1470SOL    HW1 4545   2.159   3.683   1.747  0.5688  0.2071 -0.7713
 1470SOL    HW2 4546   2.200   3.538   1.767 -1.1480 -0.1385  0.5058
 1471SOL     OW 4547   0.813   0.219   0.265 -0.3086 -0.5212  0.5214
 1471SOL    HW1 4548   0.800   0.221   0.360  1.0003 -0.0881  0.7107
 1471SOL    HW2 4549   0.774   0.136   0.237  1.1188 -1.6666  1.7436
 1472SOL     OW 4550   2.807   0.255   0.066 -0.6018 -0.4466  0.2421
 1472SOL    HW1 4551   2.820   0.220  -0.022 -1.1803  0.8327 -0.3652
 1472SOL    HW2 4552   2.824   0.180   0.124  0.7756 -1.0571 -0.8883
 1473SOL     OW 4553   1.442   0.596   1.865  0.3506  0.6645  0.3496
 1473SOL    HW1 4554   1.404   0.509   1.855 -0.3442  1.0901 -0.9979
 1473SOL    HW2 4555   1.420   0.641   1.783  0.0720  2.3370  1.3040
 1474SOL     OW 4556   2.236   1.763   1.326  0.3544  0.5873 -0.6113
 1474SOL    HW1 4557   2.159   1.747   1.272 -0.9865  0.4644  1.2374
 1474SOL    HW2 4558   2.262   1.676   1.358 -2.2514  1.0073  3.2484
 1475SOL     OW 4559   2.208   2.112   1.169  0.0801  0.1841  0.0227
 1475SOL    HW1 4560   2.215   2.111   1.265 -0.8010  0.1911  0.0969
 1475SOL    HW2 4561   2.258   2.036   1.140 -0.3385 -0.3012  0.5467
 1476SOL     OW 4562   2.761   3.164   3.142 -0.0859 -0.5053 -0.1168
 1476SOL    HW1 4563   2.826   3.132   3.078  0.0057  0.9465 -0.7804
 1476SOL    HW2 4564   2.784   3.255   3.156 -0.3871 -0.6823  1.6934
 1477SOL     OW 4565   3.939   1.667   2.308 -0.1858  0.3141 -0.1092
 1477SOL    HW1 4566   3.884   1.592   2.283 -0.8407  0.6948  0.1483
 1477SOL    HW2 4567   3.880   1.742   2.305  0.5495  0.8812 -0.6862
 1478SOL     OW 4568   1.405   2.043   2.472  0.1274 -0.1271 -0.5692
 1478SOL    HW1 4569   1.455   1.980   2.525  0.1419 -0.1641 -0.6259
 1478SOL    HW2 4570   1.431   2.023   2.382 -1.0810 -1.1146 -0.7265
 1479SOL     OW 4571   1.516   1.305   2.969 -0.1260 -0.1773 -0.3367
 1479SOL    HW1 4572   1.531   1.399   2.977 -0.9745 -0.0122 -0.6242
 1479SOL    HW2 4573   1.543   1.283   2.880  1.4483 -0.4933  0.1770
 1480SOL     OW 4574   4.840   0.337   2.489 -1.0631 -0.2681  0.3684
 1480SOL    HW1 4575   4.762   0.381   2.456 -0.7457 -0.1349 -0.2187
 1480SOL    HW2 4576   4.809   0.251   2.517 -1.8247  0.5394  2.1738
 1481SOL     OW 4577   1.015   2.280   1.998  0.0674 -0.0151 -0.0354
 1481SOL    HW1 4578   1.060   2.347   1.947  0.2119 -0.0953 -0.0149
 1481SOL    HW2 4579   1.081   2.249   2.059 -0.4348  0.9025  1.0022
 1482SOL     OW 4580   0.642   2.852   4.302 -0.1939 -0.1583 -0.2431
 1482SOL    HW1 4581   0.608   2.870   4.390 -0.4144  0.1176 -0.3825
 1482SOL    HW2 4582   0.713   2.915   4.291 -0.1212 -0.2396 -0.2335
 1483SOL     OW 4583   3.085   4.012   2.886 -0.0362  0.0172 -0.4027
 1483SOL    HW1 4584   3.073   4.005   2.980 -0.1223  0.3947 -0.3823
 1483SOL    HW2 4585   3.179   4.003   2.872  0.2306  1.8303 -0.0887
 1484SOL     OW 4586   2.854   3.169   2.542  0.3721  0.0674 -0.2585
 1484SOL    HW1 4587   2.870   3.082   2.504  2.0343 -0.1488  0.8144
 1484SOL    HW2 4588   2.857   3.154   2.636  1.9734  1.4462 -0.0361
 1485SOL     OW 4589   3.745   2.821   4.441  0.4980 -0.3667 -0.2058
 1485SOL    HW1 4590   3.783   2.890   4.495  0.0377 -0.1732 -0.1274
 1485SOL    HW2 4591   3.736   2.747   4.501  0.0694 -0.1802 -0.0383
 1486SOL     OW 4592   4.770   3.973   2.869  0.1915  0.2083 -0.5822
 1486SOL    HW1 4593   4.682   3.941   2.886  0.0439  1.8247  2.3013
 1486SOL    HW2 4594   4.826   3.925   2.930  0.8902  1.0001 -0.5765
 1487SOL     OW 4595   4.998   4.008   1.435  0.5065  0.4267 -0.0069
 1487SOL    HW1 4596   4.913   4.015   1.477 -0.3070 -2.5751 -0.8908
 1487SOL    HW2 4597   5.058   4.057   1.492 -1.6001  1.8327  1.1232
 1488SOL     OW 4598   1.108   1.112   1.235 -0.7078 -0.0415  0.2636
 1488SOL    HW1 4599   1.015   1.132   1.240 -0.8145  0.1299 -1.8021
 1488SOL    HW2 4600   1.118   1.061   1.155  1.0270  0.2055  0.2789
 1489SOL     OW 4601   4.339   4.972   4.623 -0.0483  0.2586 -0.2807
 1489SOL    HW1 4602   4.259   4.920   4.611  0.4201 -0.1043 -2.2267
 1489SOL    HW2 4603   4.314   5.043   4.681 -1.8733  0.3049 -1.0755
 1490SOL     OW 4604   2.259   0.003   2.029  0.5152 -0.1350 -0.4644
 1490SOL    HW1 4605   2.267   0.066   1.958 -1.0402 -0.5405 -1.0477
 1490SOL    HW2 4606   2.242   0.056   2.107 -0.1156  0.2100 -0.8285
 1491SOL     OW 4607   2.605   3.001   1.332 -0.1978  0.0487  0.2177
 1491SOL    HW1 4608   2.582   2.910   1.314 -1.0956  0.2609  0.2424
 1491SOL    HW2 4609   2.599   3.044   1.247 -0.1284  0.1628  0.2710
 1492SOL     OW 4610   1.432   0.602   3.302 -0.2261  0.4665 -0.6366
 1492SOL    HW1 4611   1.368   0.656   3.349  0.1288  0.1337  0.2693
 1492SOL    HW2 4612   1.394   0.588   3.216 -1.1882  0.6193 -0.2500
 1493SOL     OW 4613   1.920   4.568   4.358 -0.1437 -0.2483  0.0186
 1493SOL    HW1 4614   1.871   4.573   4.441 -0.0717  0.0098  0.0488
 1493SOL    HW2 4615   1.978   4.644   4.361 -1.0952  0.5504 -0.8699
 1494SOL     OW 4616   2.929   1.607   3.028  0.2856 -0.4641  0.0755
 1494SOL    HW1 4617   3.009   1.605   3.082 -0.9665 -3.2671  2.0713
 1494SOL    HW2 4618   2.944   1.539   2.962 -0.4964 -1.2104  0.6413
 1495SOL     OW 4619   4.583   3.807   1.703 -0.1111  0.7856  0.3499
 1495SOL    HW1 4620   4.564   3.801   1.610  0.5783 -0.7993  0.2784
 1495SOL    HW2 4621   4.539   3.887   1.731 -1.5539  0.5403 -1.0318
 1496SOL     OW 4622   3.882   4.357   1.017 -0.1594 -0.0459 -0.2790
 1496SOL    HW1 4623   3.950   4.401   1.068 -1.4624  1.1966  0.4554
 1496SOL    HW2 4624   3.921   4.346   0.930  1.1425  0.1785  0.2477
 1497SOL     OW 4625   1.086   4.943   1.504 -0.2860 -0.6190  0.6475
 1497SOL    HW1 4626   1.154   4.876   1.502 -0.8800 -1.2897  1.7996
 1497SOL    HW2 4627   1.005   4.895   1.520 -1.4221 -0.0804 -2.6971
 1498SOL     OW 4628   0.420   4.980   2.566  0.1949 -0.0579  0.0533
 1498SOL    HW1 4629   0.348   5.009   2.621  0.3912  1.1935 -0.3120
 1498SOL    HW2 4630   0.379   4.924   2.501 -0.4427  0.5059 -0.0509
 1499SOL     OW 4631   1.191   0.850   0.439  0.5649  0.1312  0.3838
 1499SOL    HW1 4632   1.164   0.941   0.455 -0.0578 -0.0199  0.2299
 1499SOL    HW2 4633   1.273   0.857   0.391  0.6998  0.6120  0.6805
 1500SOL     OW 4634   3.170   2.833   0.062  0.1730 -0.0998  0.5860
 1500SOL    HW1 4635   3.204   2.791   0.140  0.2896 -1.9288 -0.3909
 1500SOL    HW2 4636   3.174   2.927   0.081  0.8994 -0.4711  2.4537
 1501SOL     OW 4637   0.534   4.327   1.817  0.4383 -0.2282  0.2353
 1501SOL    HW1 4638   0.568   4.269   1.750  0.2157  0.1742 -0.2330
 1501SOL    HW2 4639   0.514   4.270   1.891  0.9282 -0.6372  0.0538
 1502SOL     OW 4640   2.458   4.380   3.614 -0.2684 -0.4384 -0.1932
 1502SOL    HW1 4641   2.494   4.326   3.544 -0.5632 -2.4964  1.1543
 1502SOL    HW2 4642   2.370   4.345   3.628 -1.4717  2.0598 -0.9159
 1503SOL     OW 4643   2.952   0.995   4.119  0.0727  0.3973  0.2051
 1503SOL    HW1 4644   2.931   1.015   4.028 -1.0933  1.6938  0.7228
 1503SOL    HW2 4645   2.870   0.965   4.157  1.0535 -2.4359  0.3094
 1504SOL     OW 4646   2.364   2.655   1.477 -1.1665 -0.3778  0.3723
 1504SOL    HW1 4647   2.326   2.737   1.509 -1.1438 -1.2571  2.8696
 1504SOL    HW2 4648   2.315   2.587   1.523  0.4267 -1.6860  0.2092
 1505SOL     OW 4649   1.073   4.960   2.727  0.0238 -0.0758  0.2479
 1505SOL    HW1 4650   1.027   5.008   2.658 -1.2106 -2.4068 -0.6418
 1505SOL    HW2 4651   1.121   4.891   2.682  0.9406 -0.3422  1.5560
 1506SOL     OW 4652   2.152   2.142   1.896  0.3519 -0.2303 -0.0988
 1506SOL    HW1 4653   2.136   2.080   1.824  0.5782 -2.5759  1.7578
 1506SOL    HW2 4654   2.216   2.204   1.861 -0.0179 -0.9231 -2.1136
 1507SOL     OW 4655   1.856   1.279   2.490 -0.5469 -0.3672 -0.4081
 1507SOL    HW1 4656   1.791   1.347   2.472  0.6073  0.4161 -1.8281
 1507SOL    HW2 4657   1.809   1.197   2.478 -1.5469  0.1712 -0.2908
 1508SOL     OW 4658   4.175   2.813   0.301 -0.2697 -0.2163  0.0002
 1508SOL    HW1 4659   4.131   2.864   0.369  0.1901 -1.1594  1.0231
 1508SOL    HW2 4660   4.268   2.830   0.314  0.0194 -2.5153  1.3988
 1509SOL     OW 4661   1.892   3.517   0.212 -0.2734 -0.6779 -0.2854
 1509SOL    HW1 4662   1.889   3.605   0.249  2.0323 -0.3245 -0.7772
 1509SOL    HW2 4663   1.871   3.530   0.119  0.6191 -0.5618 -0.4717
 1510SOL     OW 4664   2.550   3.918   0.293 -0.0022  0.2390 -0.1015
 1510SOL    HW1 4665   2.628   3.970   0.272  0.4551  0.5920  2.2163
 1510SOL    HW2 4666   2.527   3.875   0.211  1.9521  1.0280 -1.1215
 1511SOL     OW 4667   4.669   0.727   0.995  0.1513  0.2381 -0.2002
 1511SOL    HW1 4668   4.641   0.674   0.920  0.5373  2.0486 -1.6767
 1511SOL    HW2 4669   4.593   0.729   1.053 -0.6652  0.0155 -1.2460
 1512SOL     OW 4670   0.306   1.756   2.044 -0.7744  0.0854 -0.5616
 1512SOL    HW1 4671   0.349   1.806   2.114 -0.8736 -0.6931  0.0644
 1512SOL    HW2 4672   0.213   1.762   2.064 -0.7979 -0.2110 -0.5857
 1513SOL     OW 4673   1.618   1.195   1.578  0.5042  0.1643  0.4056
 1513SOL    HW1 4674   1.637   1.274   1.629 -0.4254 -0.3271  1.5783
 1513SOL    HW2 4675   1.575   1.227   1.499 -0.4347  0.8339  1.1576
 1514SOL     OW 4676   4.151   1.154   2.903  0.0436  0.1939  0.3226
 1514SOL    HW1 4677   4.088   1.099   2.949 -1.9069 -0.2610 -2.6389
 1514SOL    HW2 4678   4.201   1.093   2.849  0.1728  0.9905 -0.4677
 1515SOL     OW 4679   4.093   2.099   4.831  0.0281  0.1193 -0.3601
 1515SOL    HW1 4680   4.143   2.052   4.898  0.5075  1.2778  0.1209
 1515SOL    HW2 4681   4.003   2.071   4.844  0.3655 -1.0405 -0.4118
 1516SOL     OW 4682   3.023   4.776   1.436  0.2036  0.2911  0.7942
 1516SOL    HW1 4683   2.964   4.774   1.512  1.9754 -1.3255  2.2179
 1516SOL    HW2 4684   2.972   4.736   1.365 -1.7305  2.4475  0.8339
 1517SOL     OW 4685   4.718   4.637   3.019 -0.1807  0.2645 -0.3291
 1517SOL    HW1 4686   4.680   4.648   3.106  0.8769  2.3454 -0.0876
 1517SOL    HW2 4687   4.688   4.713   2.969 -2.3075 -1.7801 -2.4544
 1518SOL     OW 4688   4.365   4.420   1.082  0.1664 -0.1259  0.1473
 1518SOL    HW1 4689   4.459   4.430   1.088  0.8458 -3.1633 -2.5624
 1518SOL    HW2 4690   4.344   4.350   1.145 -0.1006 -0.2185 -0.0420
 1519SOL     OW 4691   4.129   2.700   0.799  0.7282 -0.6080 -0.2782
 1519SOL    HW1 4692   4.054   2.744   0.840  1.7891  1.2635 -0.2534
 1519SOL    HW2 4693   4.100   2.681   0.710 -0.3486 -1.4477  0.2294
 1520SOL     OW 4694   4.190   2.128   3.504  0.4098 -0.7973 -0.3388
 1520SOL    HW1 4695   4.218   2.216   3.477  0.7965 -0.7548  0.1865
 1520SOL    HW2 4696   4.170   2.083   3.422 -0.5704  0.0360 -0.5721
 1521SOL     OW 4697   2.784   1.430   4.751 -0.1787  0.1443 -0.1871
 1521SOL    HW1 4698   2.756   1.412   4.841 -1.3859  0.9361 -0.3806
 1521SOL    HW2 4699   2.759   1.521   4.736  1.0391  0.3673 -0.9621
 1522SOL     OW 4700   2.141   4.908   3.081 -0.0773  0.5727 -0.3593
 1522SOL    HW1 4701   2.127   4.861   2.999  0.8984  0.5082 -0.5060
 1522SOL    HW2 4702   2.184   4.844   3.138 -1.1562  0.4698  0.3730
 1523SOL     OW 4703   4.612   3.565   1.886  0.5894  0.3521 -0.2762
 1523SOL    HW1 4704   4.624   3.624   1.811 -2.9463  0.5473 -0.8624
 1523SOL    HW2 4705   4.543   3.504   1.857  1.1387 -1.3902  1.8454
 1524SOL     OW 4706   4.423   0.115   3.906 -0.1459  0.0438  0.7674
 1524SOL    HW1 4707   4.517   0.124   3.924 -0.3351  0.1190  1.8015
 1524SOL    HW2 4708   4.416   0.114   3.811  0.9196 -0.1072  0.6825
 1525SOL     OW 4709   0.036   2.586   1.122 -0.0672  0.1704 -0.1411
 1525SOL    HW1 4710   0.123   2.593   1.160  0.1701 -1.4699 -0.2765
 1525SOL    HW2 4711   0.042   2.634   1.039  0.8487 -0.2583 -0.3423
 1526SOL     OW 4712   0.226   4.644   1.526  0.1211  0.0086 -0.2541
 1526SOL    HW1 4713   0.258   4.598   1.604 -0.7362 -4.2107 -2.1359
 1526SOL    HW2 4714   0.134   4.620   1.519  0.3694 -0.4956 -2.9800
 1527SOL     OW 4715   3.776   0.841   4.891 -0.2581 -0.0344  0.3085
 1527SOL    HW1 4716   3.689   0.830   4.928  1.0874  0.1738  3.9629
 1527SOL    HW2 4717   3.829   0.874   4.964  2.9570 -0.3946 -1.6621
 1528SOL     OW 4718   4.879   3.571   1.391 -0.0323  0.0061 -0.0479
 1528SOL    HW1 4719   4.947   3.629   1.356  0.1686  0.3225  0.8528
 1528SOL    HW2 4720   4.809   3.630   1.417  0.5945 -0.0408  1.8431
 1529SOL     OW 4721   1.251   3.828   1.793  0.0522  0.4710  0.2423
 1529SOL    HW1 4722   1.227   3.816   1.885  0.1112 -1.2897  0.0666
 1529SOL    HW2 4723   1.321   3.764   1.778 -0.7721 -0.1182 -1.3212
 1530SOL     OW 4724   3.349   4.373   0.122 -0.2336  0.0422  0.2906
 1530SOL    HW1 4725   3.276   4.358   0.062 -0.0018 -0.0169  0.0199
 1530SOL    HW2 4726   3.408   4.300   0.106  0.1681  0.4077  0.0780
 1531SOL     OW 4727   1.721   4.819   0.953  0.0466  0.1910  0.3809
 1531SOL    HW1 4728   1.815   4.810   0.971  0.1827  0.2027 -0.2765
 1531SOL    HW2 4729   1.714   4.804   0.859 -0.3865  1.8327  0.1143
 1532SOL     OW 4730   2.768   4.097   0.248 -0.2933 -0.1121 -0.2400
 1532SOL    HW1 4731   2.849   4.062   0.211 -1.8334 -3.0200 -1.1902
 1532SOL    HW2 4732   2.796   4.154   0.320  2.5629 -0.2733 -1.1208
 1533SOL     OW 4733   4.973   0.639   3.905 -0.0443  0.1211 -0.3510
 1533SOL    HW1 4734   5.028   0.562   3.914  1.1968  1.0996  0.9680
 1533SOL    HW2 4735   4.888   0.612   3.938  0.0928 -0.9410 -0.8242
 1534SOL     OW 4736   0.358   0.317   3.007 -0.2687  0.3994  0.4319
 1534SOL    HW1 4737   0.442   0.304   3.050 -0.6429 -1.1402  0.7639
 1534SOL    HW2 4738   0.370   0.394   2.951  1.4327  0.0107  0.2368
 1535SOL     OW 4739   1.960   1.116   2.105  0.6000 -0.3860 -0.2002
 1535SOL    HW1 4740   2.008   1.175   2.164  0.9298  0.9827 -1.7604
 1535SOL    HW2 4741   1.868   1.130   2.128  0.7766 -1.7909  1.6706
 1536SOL     OW 4742   0.467   3.914   4.403  0.2086 -0.1501 -0.3845
 1536SOL    HW1 4743   0.431   3.933   4.317 -0.5979 -1.4471 -0.3619
 1536SOL    HW2 4744   0.436   3.826   4.423  1.3364 -0.3240  0.7378
 1537SOL     OW 4745   0.228   4.738   2.694 -0.0624 -0.1836 -0.4792
 1537SOL    HW1 4746   0.140   4.776   2.697 -0.4612 -1.0809 -0.4474
 1537SOL    HW2 4747   0.216   4.655   2.648  0.9081  0.0433 -1.1673
 1538SOL     OW 4748   4.748   0.957   1.153 -0.0146  0.4777  0.2735
 1538SOL    HW1 4749   4.729   0.863   1.148  0.3573  0.3652  0.8864
 1538SOL    HW2 4750   4.790   0.968   1.238  0.2070  1.1560  0.0775
 1539SOL     OW 4751   4.948   2.172   3.860  0.2515 -0.4026  0.3915
 1539SOL    HW1 4752   4.929   2.085   3.824  3.5117 -1.5822  1.1531
 1539SOL    HW2 4753   4.991   2.219   3.789  1.1649 -0.5287  0.8425
 1540SOL     OW 4754   1.929   1.905   0.928  0.2112 -0.1591  0.2799
 1540SOL    HW1 4755   1.836   1.882   0.919 -0.0610  0.9718  0.0144
 1540SOL    HW2 4756   1.928   1.989   0.973  1.0221  0.6605 -1.1659
 1541SOL     OW 4757   3.743   1.711   2.794 -0.2582 -0.1329 -0.2791
 1541SOL    HW1 4758   3.658   1.666   2.795 -0.6510  0.5517  2.0535
 1541SOL    HW2 4759   3.721   1.803   2.781  0.3164 -0.1832 -1.7756
 1542SOL     OW 4760   4.962   4.580   3.091  0.0587 -0.0089  0.3517
 1542SOL    HW1 4761   4.882   4.612   3.049  0.6417  1.7022  0.4875
 1542SOL    HW2 4762   4.966   4.488   3.067  0.2702  0.8176 -3.2180
 1543SOL     OW 4763   0.193   3.026   1.374 -0.1168 -0.0155 -0.4732
 1543SOL    HW1 4764   0.106   3.064   1.375  0.2825  1.0311 -1.9449
 1543SOL    HW2 4765   0.252   3.101   1.377  0.7259 -0.6863 -0.0314
 1544SOL     OW 4766   3.707   3.766   0.963  0.4857 -0.3067 -0.1809
 1544SOL    HW1 4767   3.614   3.745   0.975  0.8105 -2.2748 -0.7812
 1544SOL    HW2 4768   3.707   3.849   0.917 -1.0135 -0.7396 -1.0239
 1545SOL     OW 4769   4.441   3.507   1.271 -0.2428  0.3924 -0.8881
 1545SOL    HW1 4770   4.355   3.464   1.275  1.2270 -2.9714  3.8897
 1545SOL    HW2 4771   4.496   3.445   1.224  0.7922 -0.6599  1.5665
 1546SOL     OW 4772   0.697   4.010   2.907  0.5211 -0.2370 -0.1576
 1546SOL    HW1 4773   0.733   3.942   2.850 -1.1053  0.0123 -1.5256
 1546SOL    HW2 4774   0.642   4.063   2.850 -1.2195 -0.0103  1.6320
 1547SOL     OW 4775   4.802   1.864   3.052 -0.1421  0.1654 -0.1689
 1547SOL    HW1 4776   4.830   1.819   3.132 -2.1298  0.5262  0.7917
 1547SOL    HW2 4777   4.829   1.805   2.981  2.3078  0.1740  0.6582
 1548SOL     OW 4778   0.448   3.666   2.136  0.2687 -0.1410  0.7698
 1548SOL    HW1 4779   0.403   3.723   2.198  1.4004  0.7142  0.8231
 1548SOL    HW2 4780   0.501   3.725   2.083 -2.2382 -0.5163 -2.4811
 1549SOL     OW 4781   0.895   3.142   1.706 -0.3922  0.0006  0.7116
 1549SOL    HW1 4782   0.949   3.104   1.637  0.1494  0.2231  1.0054
 1549SOL    HW2 4783   0.848   3.068   1.744 -1.0334 -0.0642 -0.1846
 1550SOL     OW 4784   4.298   3.013   1.187 -0.3790  0.6409  0.7330
 1550SOL    HW1 4785   4.370   3.069   1.218 -0.8637  0.2779  2.6941
 1550SOL    HW2 4786   4.288   2.948   1.257 -0.6367 -1.1774 -0.9298
 1551SOL     OW 4787   2.338   4.196   3.171  0.2676 -0.1254 -0.5050
 1551SOL    HW1 4788   2.342   4.207   3.075 -1.5106  0.5353 -0.5531
 1551SOL    HW2 4789   2.247   4.173   3.188  0.4985  0.0290  1.0619
 1552SOL     OW 4790   2.064   2.885   0.993  0.2591  0.2483 -0.2887
 1552SOL    HW1 4791   1.972   2.887   0.966  0.9015 -0.7981 -2.8345
 1552SOL    HW2 4792   2.098   2.970   0.967  0.3052  0.1492 -0.5566
 1553SOL     OW 4793   3.349   1.167   2.763  0.5020  0.0315 -0.0261
 1553SOL    HW1 4794   3.430   1.125   2.793  0.3348 -0.4145 -0.1925
 1553SOL    HW2 4795   3.356   1.168   2.668  0.1068 -0.4246 -0.0612
 1554SOL     OW 4796   2.615   2.887   2.685  0.2902  0.4500  0.1154
 1554SOL    HW1 4797   2.683   2.953   2.670  2.1982 -1.1600  1.2288
 1554SOL    HW2 4798   2.657   2.821   2.740 -1.7704 -1.3382 -0.3126
 1555SOL     OW 4799   0.400   3.108   2.839  0.2570  0.1440  0.4369
 1555SOL    HW1 4800   0.494   3.087   2.843 -0.0018 -1.1570  0.0407
 1555SOL    HW2 4801   0.396   3.189   2.788  1.0801 -0.4449 -0.6078
 1556SOL     OW 4802   4.315   1.997   0.610  0.3410  0.2325  0.0878
 1556SOL    HW1 4803   4.278   2.085   0.616 -2.3113 -0.8045  0.0833
 1556SOL    HW2 4804   4.371   2.000   0.532 -1.2372  1.4199 -1.0777
 1557SOL     OW 4805   1.878   0.177   4.393 -0.0265 -0.1032  0.4616
 1557SOL    HW1 4806   1.949   0.233   4.364 -1.5141  0.7462 -1.7704
 1557SOL    HW2 4807   1.818   0.235   4.440 -0.5145 -0.2784  0.0634
 1558SOL     OW 4808   0.155   0.795   2.472 -0.5906  0.1312  0.3642
 1558SOL    HW1 4809   0.172   0.848   2.394 -0.1560  0.3862  0.6296
 1558SOL    HW2 4810   0.229   0.735   2.477 -0.1228  0.7562  1.1134
 1559SOL     OW 4811   2.377   2.591   4.539 -0.1454  0.2818 -0.3551
 1559SOL    HW1 4812   2.423   2.536   4.603 -0.8104  1.6069  1.3346
 1559SOL    HW2 4813   2.428   2.671   4.536 -0.6110  0.5640 -0.8513
 1560SOL     OW 4814   1.929   0.820   1.402 -0.6872 -0.0828 -0.3286
 1560SOL    HW1 4815   2.019   0.850   1.390  0.7775 -3.8151 -0.0647
 1560SOL    HW2 4816   1.914   0.826   1.497  0.8931 -3.0429  0.2316
 1561SOL     OW 4817   2.792   4.999   0.256  0.1314 -0.5078  0.2611
 1561SOL    HW1 4818   2.834   4.914   0.240 -0.4833 -0.5896 -1.0317
 1561SOL    HW2 4819   2.698   4.979   0.258 -0.1100  0.3083 -1.4100
 1562SOL     OW 4820   2.641   2.539   1.438 -0.7735 -0.3767  0.3846
 1562SOL    HW1 4821   2.652   2.572   1.527 -1.8899 -3.0883  1.6269
 1562SOL    HW2 4822   2.547   2.550   1.421 -0.5765  0.0631 -0.4715
 1563SOL     OW 4823   1.341   0.471   1.406  0.0805  0.3463 -0.2536
 1563SOL    HW1 4824   1.273   0.418   1.448 -0.9479  1.4805 -0.4307
 1563SOL    HW2 4825   1.331   0.454   1.313 -1.3776  2.0873 -0.4542
 1564SOL     OW 4826   0.226   4.869   2.331  0.4334 -0.1767 -0.0603
 1564SOL    HW1 4827   0.177   4.796   2.295 -0.1650 -0.5653  1.4775
 1564SOL    HW2 4828   0.160   4.928   2.367  0.8994  1.2073 -1.3761
 1565SOL     OW 4829   4.786   4.605   3.436  0.0143 -0.0946 -0.4244
 1565SOL    HW1 4830   4.725   4.677   3.421 -0.7091 -0.4460  0.7422
 1565SOL    HW2 4831   4.731   4.531   3.461  0.9251  0.4831  4.2773
 1566SOL     OW 4832   4.438   3.356   0.076 -0.8165  0.2520 -0.7748
 1566SOL    HW1 4833   4.369   3.413   0.043 -1.4636 -0.5217 -0.7951
 1566SOL    HW2 4834   4.441   3.374   0.170 -1.2067  0.1288 -0.7363
 1567SOL     OW 4835   1.333   3.400   1.236 -0.1936  0.0522  0.1638
 1567SOL    HW1 4836   1.372   3.472   1.186 -0.5528  0.7709  0.8927
 1567SOL    HW2 4837   1.241   3.425   1.246 -0.4196 -0.7233  0.0566
 1568SOL     OW 4838   2.702   0.455   4.036  0.1510  0.9020  0.1696
 1568SOL    HW1 4839   2.669   0.368   4.012 -0.6671  0.7294  1.7935
 1568SOL    HW2 4840   2.637   0.515   4.000 -0.4704  0.7000  0.9049
 1569SOL     OW 4841   0.463   0.811   0.396  0.4045  0.3516  0.3290
 1569SOL    HW1 4842   0.512   0.802   0.314 -0.5085 -1.6761 -0.0508
 1569SOL    HW2 4843   0.376   0.840   0.369 -0.3551 -1.7220  0.3704
 1570SOL     OW 4844   3.134   3.073   3.808  0.3362 -0.2918 -1.0614
 1570SOL    HW1 4845   3.228   3.066   3.824  0.2990  0.3820 -0.5117
 1570SOL    HW2 4846   3.098   2.988   3.834  0.8435 -0.7146 -1.7150
 1571SOL     OW 4847   2.826   1.391   3.744  0.6992 -0.2637  0.0931
 1571SOL    HW1 4848   2.873   1.410   3.663 -0.2530 -0.3841 -0.4931
 1571SOL    HW2 4849   2.851   1.302   3.766  1.1541 -0.1450  0.0726
 1572SOL     OW 4850   3.479   2.234   2.541 -0.4510  0.2812 -0.5713
 1572SOL    HW1 4851   3.437   2.256   2.458 -0.1133 -1.6551 -1.2972
 1572SOL    HW2 4852   3.479   2.317   2.590 -1.6144  1.2171 -2.0538
 1573SOL     OW 4853   0.043   2.202   2.440 -0.0734  0.4174 -0.7530
 1573SOL    HW1 4854  -0.004   2.179   2.520  0.7248 -0.3477 -0.4994
 1573SOL    HW2 4855  -0.020   2.256   2.391 -0.5156  1.0306  0.4426
 1574SOL     OW 4856   3.235   1.242   0.483 -0.0791  0.1363 -0.0452
 1574SOL    HW1 4857   3.217   1.172   0.546 -0.5837  0.7570  0.5267
 1574SOL    HW2 4858   3.256   1.318   0.538  0.1118  0.5207 -0.6441
 1575SOL     OW 4859   3.065   2.392   3.112  0.0686 -0.5920 -0.5458
 1575SOL    HW1 4860   3.065   2.458   3.043  3.0274 -1.5216 -1.6209
 1575SOL    HW2 4861   3.086   2.310   3.066  1.4898 -1.3420  1.3224
 1576SOL     OW 4862   3.105   2.802   3.946 -0.4628 -0.5392 -0.2685
 1576SOL    HW1 4863   3.178   2.750   3.913 -0.7299 -0.4585 -1.0047
 1576SOL    HW2 4864   3.035   2.738   3.962 -0.8505 -0.4028 -1.3406
 1577SOL     OW 4865   1.460   1.021   3.108  0.1016  0.1946 -0.5723
 1577SOL    HW1 4866   1.429   1.111   3.095 -0.7097  0.0422  0.2146
 1577SOL    HW2 4867   1.391   0.980   3.159  0.8015 -0.6842 -0.3259
 1578SOL     OW 4868   1.889   4.041   0.140 -0.1069 -0.0933 -0.0600
 1578SOL    HW1 4869   1.932   4.025   0.224 -2.8758 -3.1443  0.9991
 1578SOL    HW2 4870   1.897   3.958   0.093 -1.0689  0.6603 -1.6211
 1579SOL     OW 4871   2.027   4.140   2.583  0.0770  0.2133  0.3880
 1579SOL    HW1 4872   2.021   4.106   2.672 -0.8503 -0.4023  0.1081
 1579SOL    HW2 4873   2.064   4.069   2.531 -0.0743  0.3048  0.1471
 1580SOL     OW 4874   2.308   3.649   0.326 -0.3748  0.2525 -0.3380
 1580SOL    HW1 4875   2.353   3.699   0.257 -0.8086  0.5905 -0.3821
 1580SOL    HW2 4876   2.260   3.580   0.278  0.2475 -0.2306 -0.2746
 1581SOL     OW 4877   3.647   1.004   1.311 -0.3581  0.3864  0.0678
 1581SOL    HW1 4878   3.605   0.918   1.305 -1.3222  0.8465  0.0811
 1581SOL    HW2 4879   3.693   1.014   1.228  0.5006 -0.5084  0.4141
 1582SOL     OW 4880   2.820   3.747   1.351  0.2933 -0.4308 -0.2884
 1582SOL    HW1 4881   2.834   3.842   1.351 -1.5587  0.0434  3.8734
 1582SOL    HW2 4882   2.871   3.715   1.425 -1.1196 -2.2485 -0.0219
 1583SOL     OW 4883   4.370   3.313   3.999  0.0532  0.7044  0.1781
 1583SOL    HW1 4884   4.284   3.280   3.971 -0.7720  1.8907  1.1992
 1583SOL    HW2 4885   4.350   3.370   4.073  1.9717 -0.9625  2.0947
 1584SOL     OW 4886   2.582   0.323   0.601 -0.0580  0.1760 -0.0782
 1584SOL    HW1 4887   2.503   0.366   0.570 -1.2375  0.4250  2.8827
 1584SOL    HW2 4888   2.650   0.391   0.599 -0.6520  0.7755 -0.0531
 1585SOL     OW 4889   0.470   3.576   2.939 -0.5217 -0.3972  0.6798
 1585SOL    HW1 4890   0.376   3.596   2.945 -0.8572 -1.6001 -0.1035
 1585SOL    HW2 4891   0.475   3.482   2.955  0.4906 -0.4366  0.2072
 1586SOL     OW 4892   3.153   0.780   2.257  0.2734 -0.2808  0.3315
 1586SOL    HW1 4893   3.077   0.836   2.241  0.8551  0.0810 -1.3628
 1586SOL    HW2 4894   3.120   0.691   2.244  0.1536 -0.1121 -0.6582
 1587SOL     OW 4895   2.855   4.373   4.840  0.3050  1.0507 -0.3445
 1587SOL    HW1 4896   2.801   4.342   4.912 -0.6409  2.3062 -0.4897
 1587SOL    HW2 4897   2.923   4.426   4.882 -0.6959  2.4190 -0.3975
 1588SOL     OW 4898   4.021   3.321   0.669  0.2975  0.1975 -0.2010
 1588SOL    HW1 4899   3.987   3.284   0.588 -3.1815  1.5821  0.4510
 1588SOL    HW2 4900   4.065   3.401   0.642 -0.4377  0.4140 -0.8044
 1589SOL     OW 4901   4.745   4.522   1.654  0.6917  0.1140  0.2314
 1589SOL    HW1 4902   4.660   4.523   1.609  1.4538 -1.1256 -1.3276
 1589SOL    HW2 4903   4.758   4.612   1.682 -0.9219  0.4231  0.0829
 1590SOL     OW 4904   1.059   4.518   4.830 -0.2345  0.0033 -0.0322
 1590SOL    HW1 4905   1.037   4.536   4.921 -0.2466 -0.5783  0.0878
 1590SOL    HW2 4906   1.150   4.547   4.821  0.1456 -0.9761  0.4827
 1591SOL     OW 4907   2.741   1.112   4.962 -0.4125 -0.0920 -0.0172
 1591SOL    HW1 4908   2.814   1.086   4.906 -0.0699  1.0263 -0.1314
 1591SOL    HW2 4909   2.783   1.162   5.033 -1.1093  1.2345 -0.5032
 1592SOL     OW 4910   3.849   4.811   3.339  0.2181  0.1436  0.6126
 1592SOL    HW1 4911   3.885   4.868   3.270  0.2290  0.2180  0.6796
 1592SOL    HW2 4912   3.869   4.857   3.420 -1.4033  0.9788  0.5792
 1593SOL     OW 4913   0.582   4.282   0.734  0.1140 -0.2051 -0.2729
 1593SOL    HW1 4914   0.570   4.350   0.801  0.7669 -0.0042 -0.3521
 1593SOL    HW2 4915   0.580   4.200   0.783  2.4775  0.0097  0.3119
 1594SOL     OW 4916   3.541   4.389   2.564 -0.2447  0.7612  0.1341
 1594SOL    HW1 4917   3.531   4.348   2.478  1.7320 -1.6261  0.9160
 1594SOL    HW2 4918   3.453   4.390   2.601 -0.4433 -4.5016  0.6430
 1595SOL     OW 4919   4.085   0.683   1.797 -0.4642  0.4929  0.0990
 1595SOL    HW1 4920   4.005   0.699   1.848 -0.1892 -0.8961  1.0046
 1595SOL    HW2 4921   4.058   0.626   1.726 -0.3530  0.3440  0.1759
 1596SOL     OW 4922   2.545   4.206   4.083  0.1304 -0.0619 -0.6663
 1596SOL    HW1 4923   2.540   4.212   3.988  0.0675  1.5010 -0.5862
 1596SOL    HW2 4924   2.476   4.144   4.107  0.7220 -1.1538 -1.6817
 1597SOL     OW 4925   2.817   3.222   4.181  0.2217  0.3372  0.2421
 1597SOL    HW1 4926   2.842   3.237   4.272  1.8448  1.0964 -0.2996
 1597SOL    HW2 4927   2.738   3.274   4.169  0.7998  1.3720  0.8371
 1598SOL     OW 4928   1.194   2.751   3.102 -0.0660  1.0853  0.4272
 1598SOL    HW1 4929   1.197   2.655   3.100  1.5216  1.1207  0.4277
 1598SOL    HW2 4930   1.285   2.779   3.095 -0.2031  2.5468  3.0473
 1599SOL     OW 4931   2.509   4.608   3.096  0.9437  0.5121 -0.1474
 1599SOL    HW1 4932   2.604   4.596   3.093  0.8990  0.2264 -0.3851
 1599SOL    HW2 4933   2.481   4.604   3.005  0.5515 -0.6188  0.0075
 1600SOL     OW 4934   1.647   1.009   3.358  0.2467 -0.2297 -0.2292
 1600SOL    HW1 4935   1.557   1.016   3.324  0.5856 -0.2043 -1.1562
 1600SOL    HW2 4936   1.688   1.092   3.333  0.5435 -0.2537  0.1676
 1601SOL     OW 4937   4.804   0.069   0.091 -0.5124  0.7574 -0.9031
 1601SOL    HW1 4938   4.862   0.121   0.146  1.4237 -0.9213 -1.2207
 1601SOL    HW2 4939   4.807   0.112   0.006  0.0780  0.8428 -0.8422
 1602SOL     OW 4940   2.042   1.654   0.471 -0.3468 -0.4882  0.5008
 1602SOL    HW1 4941   1.983   1.724   0.499 -0.0729 -0.2707  0.5308
 1602SOL    HW2 4942   1.987   1.576   0.470 -0.6544 -0.2705  0.4551
 1603SOL     OW 4943   2.378   4.553   0.789  0.0069 -0.8658 -0.2343
 1603SOL    HW1 4944   2.447   4.489   0.774  1.7160  0.8758 -0.1502
 1603SOL    HW2 4945   2.389   4.580   0.880 -0.7591 -0.5040 -0.2407
 1604SOL     OW 4946   3.869   2.924   2.496 -0.2492 -0.0598  0.7954
 1604SOL    HW1 4947   3.950   2.916   2.546  0.4984  0.0598 -0.3612
 1604SOL    HW2 4948   3.865   2.844   2.444  0.2763  0.8666 -0.7569
 1605SOL     OW 4949   4.587   3.762   1.129 -0.2907 -0.0595 -0.5156
 1605SOL    HW1 4950   4.576   3.713   1.048  0.0415 -1.7635  0.4316
 1605SOL    HW2 4951   4.581   3.696   1.198 -2.0459  1.5376  0.9616
 1606SOL     OW 4952   2.330   0.851   4.633 -0.1283  0.2146 -0.2773
 1606SOL    HW1 4953   2.352   0.823   4.544 -0.1591 -1.4116  0.1866
 1606SOL    HW2 4954   2.350   0.774   4.688 -1.4464  0.6839  0.9269
 1607SOL     OW 4955   1.721   4.494   0.925 -0.3463  0.2189  0.1028
 1607SOL    HW1 4956   1.651   4.557   0.904 -1.8825 -0.8625  1.6788
 1607SOL    HW2 4957   1.742   4.512   1.017 -1.4168 -2.0434  0.8564
 1608SOL     OW 4958   0.470   1.151   2.103 -0.2309  0.0921 -0.1014
 1608SOL    HW1 4959   0.449   1.189   2.018 -0.0982 -0.0508 -0.1992
 1608SOL    HW2 4960   0.500   1.224   2.156  0.5211  0.0450 -0.4483
 1609SOL     OW 4961   4.326   4.744   0.815 -0.1783  0.2530 -0.4209
 1609SOL    HW1 4962   4.369   4.824   0.783 -2.4020  1.1093 -1.5203
 1609SOL    HW2 4963   4.300   4.765   0.905 -0.3164  0.5862 -0.5367
 1610SOL     OW 4964   1.425   0.138   0.359 -0.3155 -0.0750 -0.2208
 1610SOL    HW1 4965   1.399   0.061   0.409 -2.2488  1.2888  0.9896
 1610SOL    HW2 4966   1.463   0.197   0.425  1.0148  0.0985 -1.1070
 1611SOL     OW 4967   3.326   0.154   1.846 -0.0248 -0.0732 -0.0269
 1611SOL    HW1 4968   3.415   0.185   1.830 -0.1204 -1.0600 -2.9756
 1611SOL    HW2 4969   3.329   0.061   1.827 -1.5809 -0.2502  0.4764
 1612SOL     OW 4970   2.883   3.907   1.830 -0.1849 -0.3112  0.3492
 1612SOL    HW1 4971   2.842   3.950   1.755 -1.4248  1.2348  1.8392
 1612SOL    HW2 4972   2.854   3.816   1.824 -0.5565 -0.1258 -0.8399
 1613SOL     OW 4973   1.285   3.128   1.261  0.0296 -0.6450 -0.3959
 1613SOL    HW1 4974   1.323   3.209   1.292  1.2085 -0.7272 -1.5288
 1613SOL    HW2 4975   1.192   3.134   1.283 -0.0405  1.3170 -1.0748
 1614SOL     OW 4976   1.098   2.547   2.746  0.1247 -0.7943 -0.3077
 1614SOL    HW1 4977   1.025   2.518   2.692  0.6156 -0.8487 -0.9669
 1614SOL    HW2 4978   1.098   2.643   2.736 -2.0399 -0.3749  2.5721
 1615SOL     OW 4979   4.429   2.939   4.527 -0.3349 -0.0193 -0.1771
 1615SOL    HW1 4980   4.347   2.989   4.530  0.6310  1.7167 -1.2906
 1615SOL    HW2 4981   4.495   3.002   4.498  1.8252 -0.8151  2.5326
 1616SOL     OW 4982   3.142   4.834   1.004 -0.1567 -0.2918  0.1409
 1616SOL    HW1 4983   3.227   4.822   1.047 -0.4058 -0.1941  0.6616
 1616SOL    HW2 4984   3.128   4.752   0.956  0.3514 -0.2064 -0.1622
 1617SOL     OW 4985   0.352   1.105   4.717 -0.0866  0.4645 -0.0320
 1617SOL    HW1 4986   0.352   1.053   4.636 -0.8198 -0.8483  0.7674
 1617SOL    HW2 4987   0.309   1.187   4.693  0.5517  0.4818 -1.1862
 1618SOL     OW 4988   1.365   0.394   1.135 -0.5227  0.0435 -0.1537
 1618SOL    HW1 4989   1.301   0.338   1.090 -0.3569 -0.2628 -0.0090
 1618SOL    HW2 4990   1.387   0.461   1.071 -1.6455  0.6676  0.0800
 1619SOL     OW 4991   4.190   3.397   1.364  0.2497 -0.2182 -0.9162
 1619SOL    HW1 4992   4.153   3.393   1.276  1.2321 -0.2472 -1.3398
 1619SOL    HW2 4993   4.114   3.394   1.422 -0.3592 -1.3506 -1.7239
 1620SOL     OW 4994   0.206   4.701   3.427 -0.2434  0.1898 -0.1328
 1620SOL    HW1 4995   0.288   4.662   3.457 -0.4342  1.2737  1.9580
 1620SOL    HW2 4996   0.220   4.719   3.334  0.8239 -2.2215 -0.5179
 1621SOL     OW 4997   3.029   3.217   0.960 -0.7267 -0.1358 -0.2862
 1621SOL    HW1 4998   3.052   3.141   0.906  0.6614  0.7028 -0.9239
 1621SOL    HW2 4999   3.105   3.275   0.954 -1.7431  1.3036  0.2006
 1622SOL     OW 5000   4.464   0.276   3.530  0.8128  0.1497  0.6209
 1622SOL    HW1 5001   4.400   0.280   3.601 -2.9355  2.5578 -2.4835
 1622SOL    HW2 5002   4.504   0.363   3.530 -0.0410  0.5605 -0.8196
 1623SOL     OW 5003   4.183   2.877   3.213 -0.0945 -0.1177 -0.4165
 1623SOL    HW1 5004   4.158   2.896   3.303 -1.0536 -0.2273 -0.6497
 1623SOL    HW2 5005   4.165   2.959   3.166 -2.3642 -0.9063 -1.0460
 1624SOL     OW 5006   2.540   4.927   2.342  0.1798  0.0599 -0.1535
 1624SOL    HW1 5007   2.516   5.020   2.340 -1.7769 -0.3198  1.8034
 1624SOL    HW2 5008   2.479   4.886   2.281  1.3223  0.0513 -1.3448
 1625SOL     OW 5009   4.200   4.229   1.899 -0.0455  0.1875 -1.1245
 1625SOL    HW1 5010   4.205   4.134   1.910 -1.8254  0.0058 -1.5896
 1625SOL    HW2 5011   4.289   4.260   1.918  0.6328 -1.5801 -1.2178
 1626SOL     OW 5012   2.662   2.518   3.699 -0.2314  0.1349  0.1946
 1626SOL    HW1 5013   2.606   2.459   3.749 -0.0757 -0.1480  0.0406
 1626SOL    HW2 5014   2.704   2.461   3.634 -0.0489  0.4090  0.0725
 1627SOL     OW 5015   2.283   1.263   3.575 -0.5055 -0.4466  0.3187
 1627SOL    HW1 5016   2.285   1.174   3.538 -0.4206 -0.6869  0.8944
 1627SOL    HW2 5017   2.360   1.267   3.631 -1.5788 -0.7092  1.8884
 1628SOL     OW 5018   0.344   4.753   3.746  0.3859  0.0872 -0.0938
 1628SOL    HW1 5019   0.365   4.755   3.653  0.6161  0.0596 -0.0447
 1628SOL    HW2 5020   0.323   4.844   3.768 -3.1597 -0.4063 -0.9330
 1629SOL     OW 5021   4.980   3.214   0.696 -0.2940 -0.0138 -0.2788
 1629SOL    HW1 5022   5.063   3.182   0.731  0.3381 -0.8762 -2.3816
 1629SOL    HW2 5023   4.916   3.149   0.722  0.0606 -0.3673 -0.2773
 1630SOL     OW 5024   4.070   2.815   2.892  0.3658 -0.3852  0.1594
 1630SOL    HW1 5025   4.054   2.756   2.966  0.0274 -2.1427 -1.2428
 1630SOL    HW2 5026   4.165   2.810   2.879  0.2854 -0.9714 -0.2239
 1631SOL     OW 5027   3.360   4.610   4.928 -0.4575  0.4276  0.4429
 1631SOL    HW1 5028   3.430   4.636   4.868  0.0745 -0.5520  0.6229
 1631SOL    HW2 5029   3.331   4.525   4.897 -0.4498  0.0881  1.3383
 1632SOL     OW 5030   3.275   1.399   3.466 -0.0424  0.4119  0.0975
 1632SOL    HW1 5031   3.230   1.315   3.473  0.3468  0.2037  0.1436
 1632SOL    HW2 5032   3.328   1.405   3.546 -0.7960  1.1410  0.5615
 1633SOL     OW 5033   3.518   2.270   0.160  0.1853  0.5227 -0.0146
 1633SOL    HW1 5034   3.500   2.203   0.094  0.8453  0.3301 -0.0017
 1633SOL    HW2 5035   3.526   2.221   0.242  1.3503  0.5249 -0.1111
 1634SOL     OW 5036   1.714   3.315   0.250  0.4615 -0.1175 -0.0508
 1634SOL    HW1 5037   1.779   3.384   0.234  0.3974  0.2614  1.2186
 1634SOL    HW2 5038   1.709   3.308   0.345  0.9794 -2.3690 -0.1282
 1635SOL     OW 5039   0.497   2.597   2.186 -0.2066  0.1137 -0.2244
 1635SOL    HW1 5040   0.439   2.660   2.144 -0.3402 -1.9763 -3.6324
 1635SOL    HW2 5041   0.453   2.574   2.267 -1.3281  2.5572 -0.0485
 1636SOL     OW 5042   2.798   1.887   2.068 -0.0424 -0.1741 -1.0871
 1636SOL    HW1 5043   2.751   1.847   1.994  0.5592 -2.0412 -0.5320
 1636SOL    HW2 5044   2.866   1.941   2.028  0.7754 -1.7773 -1.9605
 1637SOL     OW 5045   2.861   0.566   4.926  0.4892  0.1750 -0.0823
 1637SOL    HW1 5046   2.788   0.544   4.867  0.8995 -0.8863 -0.2111
 1637SOL    HW2 5047   2.847   0.510   5.003  1.5644 -0.5740 -0.4184
 1638SOL     OW 5048   4.241   0.880   3.697  0.0980  0.3782  0.6662
 1638SOL    HW1 5049   4.248   0.974   3.714 -1.7956  0.8717 -0.8925
 1638SOL    HW2 5050   4.331   0.849   3.699  0.7693  2.2142  1.2719
 1639SOL     OW 5051   0.342   0.559   2.877 -0.5032 -0.6164  0.5634
 1639SOL    HW1 5052   0.301   0.610   2.946 -0.4183 -1.2593  1.0968
 1639SOL    HW2 5053   0.269   0.530   2.821 -0.6700 -0.8683  0.9089
 1640SOL     OW 5054   4.176   1.576   3.661  0.0469 -0.3803 -0.5010
 1640SOL    HW1 5055   4.245   1.572   3.595  0.0139 -1.5600 -0.4811
 1640SOL    HW2 5056   4.099   1.608   3.615  0.0275 -1.1858 -1.0350
 1641SOL     OW 5057   2.338   2.519   2.144  0.0497  0.0155  0.4136
 1641SOL    HW1 5058   2.280   2.451   2.111  0.4803 -0.1877  0.0656
 1641SOL    HW2 5059   2.280   2.593   2.164 -0.0210  1.2231 -3.3998
 1642SOL     OW 5060   1.397   4.480   3.781  0.3594  0.5347  0.0646
 1642SOL    HW1 5061   1.393   4.386   3.802  0.2797 -0.0421 -2.2516
 1642SOL    HW2 5062   1.485   4.493   3.747  0.6816  1.5433  1.2044
 1643SOL     OW 5063   4.692   2.831   2.194 -0.0359 -0.7863  0.1638
 1643SOL    HW1 5064   4.725   2.741   2.197  1.8390 -0.1611 -0.0248
 1643SOL    HW2 5065   4.622   2.833   2.260 -0.1692 -2.3895  0.1134
 1644SOL     OW 5066   3.800   1.725   3.078 -0.1076  0.3426 -0.5506
 1644SOL    HW1 5067   3.857   1.664   3.032  1.3416  1.3854 -0.2255
 1644SOL    HW2 5068   3.729   1.743   3.016  0.0364 -0.8072 -1.0655
 1645SOL     OW 5069   4.706   4.231   1.081  0.2212  0.2719  0.2771
 1645SOL    HW1 5070   4.629   4.177   1.097  0.2130 -0.6775 -2.4490
 1645SOL    HW2 5071   4.779   4.181   1.119 -0.0629 -0.6922 -0.4111
 1646SOL     OW 5072   2.830   3.510   1.132 -0.6536  0.3510  0.1784
 1646SOL    HW1 5073   2.884   3.441   1.173 -2.9850 -0.7939  1.5054
 1646SOL    HW2 5074   2.810   3.570   1.204 -1.5861  0.4588 -0.1653
 1647SOL     OW 5075   4.411   2.518   1.522  0.6332  0.2638 -0.5979
 1647SOL    HW1 5076   4.421   2.500   1.428  0.5104  0.2633 -0.6118
 1647SOL    HW2 5077   4.404   2.431   1.562  0.5552  0.2669 -0.6041
 1648SOL     OW 5078   4.476   3.071   4.274  0.7803  0.0936  0.1102
 1648SOL    HW1 5079   4.467   3.145   4.334  0.2989  0.5071 -0.4565
 1648SOL    HW2 5080   4.388   3.059   4.238  0.6083 -1.4285  0.9629
 1649SOL     OW 5081   0.253   0.004   3.827  0.2064  0.0297 -0.1947
 1649SOL    HW1 5082   0.286   0.023   3.914 -0.0636 -0.6138  0.0530
 1649SOL    HW2 5083   0.301   0.063   3.769  1.2780 -0.3992  0.2396
 1650SOL     OW 5084   0.682   0.293   1.526 -0.0253 -0.3329 -0.0483
 1650SOL    HW1 5085   0.652   0.223   1.583 -1.7540  1.0848  0.8864
 1650SOL    HW2 5086   0.613   0.301   1.460 -0.7521  1.5753  0.8740
 1651SOL     OW 5087   4.244   1.077   1.449 -0.0134 -0.2980  0.7353
 1651SOL    HW1 5088   4.296   1.016   1.397  2.1214  0.6075  1.6850
 1651SOL    HW2 5089   4.246   1.159   1.399  1.0325  0.2397  1.6215
 1652SOL     OW 5090   0.802   0.648   0.278  0.2456 -0.4953 -0.7664
 1652SOL    HW1 5091   0.763   0.728   0.241 -0.2475 -0.3517  0.0284
 1652SOL    HW2 5092   0.824   0.595   0.202 -0.5733 -0.1314 -1.2760
 1653SOL     OW 5093   4.176   0.017   1.739 -0.3226  0.2744  0.1895
 1653SOL    HW1 5094   4.263  -0.018   1.759 -0.0740 -0.5498 -2.0922
 1653SOL    HW2 5095   4.126   0.005   1.820  1.8990  1.6289  1.8858
 1654SOL     OW 5096   3.132   0.754   0.278 -0.2666 -0.1336  0.4227
 1654SOL    HW1 5097   3.103   0.830   0.227 -0.7661 -0.5715  0.0356
 1654SOL    HW2 5098   3.057   0.733   0.334 -0.5927 -1.0663 -0.3355
 1655SOL     OW 5099   2.640   0.521   4.723 -0.0024 -0.5999 -0.3637
 1655SOL    HW1 5100   2.685   0.529   4.639  0.3130 -0.2407 -0.1631
 1655SOL    HW2 5101   2.561   0.574   4.713  0.2041 -0.2774 -0.3242
 1656SOL     OW 5102   3.750   4.442   2.906 -0.8453 -0.4588  0.3576
 1656SOL    HW1 5103   3.674   4.472   2.955  0.2518  2.9278  0.2277
 1656SOL    HW2 5104   3.755   4.500   2.830  1.7051 -0.6750  0.2511
 1657SOL     OW 5105   1.525   2.065   4.422 -0.3622  0.4273  0.0264
 1657SOL    HW1 5106   1.489   1.996   4.366 -1.9563 -0.1487  1.6646
 1657SOL    HW2 5107   1.620   2.054   4.415 -0.5173 -2.9416  1.3476
 1658SOL     OW 5108   3.043   4.018   3.186  0.4863  0.1548  0.5268
 1658SOL    HW1 5109   3.100   4.003   3.261 -1.4942  0.4076  2.1543
 1658SOL    HW2 5110   3.011   4.108   3.197 -0.6390 -0.1548 -0.0405
 1659SOL     OW 5111   1.124   0.881   1.905  0.1168  0.2491  0.0806
 1659SOL    HW1 5112   1.117   0.824   1.827  0.8727 -0.9862  0.8830
 1659SOL    HW2 5113   1.035   0.885   1.939 -0.2262  0.8160 -0.8468
 1660SOL     OW 5114   3.953   1.923   4.590 -0.4918  0.1304  0.3993
 1660SOL    HW1 5115   4.004   1.901   4.668 -0.8161 -0.0120  0.5708
 1660SOL    HW2 5116   3.975   1.855   4.527  1.8607  1.6953 -0.6028
 1661SOL     OW 5117   0.050   3.909   2.649  0.2540 -0.1135  0.3589
 1661SOL    HW1 5118   0.132   3.894   2.602 -0.1753 -0.2689 -0.3642
 1661SOL    HW2 5119   0.076   3.923   2.740  0.9764 -1.5799  0.4019
 1662SOL     OW 5120   0.311   2.870   1.061  0.1111 -0.0932 -0.1208
 1662SOL    HW1 5121   0.398   2.860   1.100 -0.1997  1.1057  0.9506
 1662SOL    HW2 5122   0.262   2.920   1.126 -0.9300  0.5504 -1.3749
 1663SOL     OW 5123   4.423   2.903   3.994 -0.5222  0.1587  0.1358
 1663SOL    HW1 5124   4.497   2.860   3.951  0.4241  1.3379  0.5212
 1663SOL    HW2 5125   4.424   2.993   3.960  0.1620  1.0907  2.4076
 1664SOL     OW 5126   1.440   0.549   0.945 -0.4271 -0.1188 -0.5333
 1664SOL    HW1 5127   1.428   0.591   0.860 -3.0852 -0.8075 -0.6102
 1664SOL    HW2 5128   1.490   0.612   0.997  0.5478  0.6514 -2.3359
 1665SOL     OW 5129   4.129   1.703   4.521 -0.3312  0.0397  0.0257
 1665SOL    HW1 5130   4.171   1.786   4.499 -0.6587  0.1701 -0.1234
 1665SOL    HW2 5131   4.199   1.649   4.559 -0.0875  0.3333 -0.0047
 1666SOL     OW 5132   2.136   2.785   3.190  0.1900 -0.4576  0.3824
 1666SOL    HW1 5133   2.082   2.807   3.266 -2.9058 -1.4778 -1.3446
 1666SOL    HW2 5134   2.164   2.869   3.155 -0.9455  0.1607  0.9145
 1667SOL     OW 5135   4.487   2.814   3.678 -0.2646 -0.2790  0.9583
 1667SOL    HW1 5136   4.509   2.787   3.589  0.6859  3.0636  0.0142
 1667SOL    HW2 5137   4.408   2.866   3.669 -0.3215 -0.1224  2.1221
 1668SOL     OW 5138   2.971   0.090   2.679 -0.0404 -0.3241  0.3793
 1668SOL    HW1 5139   2.920   0.126   2.751 -0.1923  1.2219 -0.4543
 1668SOL    HW2 5140   3.062   0.106   2.703 -0.0759 -0.1684  0.4119
 1669SOL     OW 5141   4.086   4.955   0.740 -0.3239  0.2350  0.2157
 1669SOL    HW1 5142   4.179   4.943   0.762 -0.7308  0.4285  2.2917
 1669SOL    HW2 5143   4.057   5.024   0.800 -1.7800  0.2503 -0.4873
 1670SOL     OW 5144   4.676   2.111   4.623 -0.2384 -0.3254 -0.1341
 1670SOL    HW1 5145   4.749   2.111   4.562 -0.9168 -1.3594 -0.9692
 1670SOL    HW2 5146   4.678   2.024   4.664 -0.4760 -0.0455  0.4982
 1671SOL     OW 5147   4.923   0.902   3.966  0.4040  0.2724  0.0894
 1671SOL    HW1 5148   4.948   0.917   4.058  1.8636 -0.6560 -0.1074
 1671SOL    HW2 5149   4.930   0.807   3.956 -0.4426  0.2994 -0.8057
 1672SOL     OW 5150   3.527   1.067   1.022 -0.6721  0.1713 -0.4535
 1672SOL    HW1 5151   3.621   1.052   1.011 -0.4951 -0.4557  1.4798
 1672SOL    HW2 5152   3.520   1.161   1.041 -0.1611 -0.1205  1.3902
 1673SOL     OW 5153   1.888   3.756   0.943 -0.4252  0.0693  0.4538
 1673SOL    HW1 5154   1.895   3.662   0.924  0.7278  0.8092 -3.8189
 1673SOL    HW2 5155   1.965   3.776   0.995  1.5758 -0.7908 -2.0037
 1674SOL     OW 5156   0.983   3.490   0.735  0.1252 -0.2722  0.3770
 1674SOL    HW1 5157   0.943   3.471   0.650  1.9961 -1.4310 -0.3062
 1674SOL    HW2 5158   0.944   3.426   0.794 -1.7330  1.0033  0.6351
 1675SOL     OW 5159   0.397   1.342   1.917  0.7104  0.0838 -0.4555
 1675SOL    HW1 5160   0.375   1.414   1.857 -0.1009  0.3965  0.1897
 1675SOL    HW2 5161   0.426   1.386   1.997  0.8149 -0.3134 -0.2740
 1676SOL     OW 5162   3.520   4.396   3.496 -0.5445  0.2817  0.3404
 1676SOL    HW1 5163   3.585   4.440   3.551  0.2728 -0.6035  0.1115
 1676SOL    HW2 5164   3.534   4.303   3.512 -1.4846  0.0564 -0.0382
 1677SOL     OW 5165   0.955   4.905   3.166  0.7738  0.2167 -0.2003
 1677SOL    HW1 5166   0.963   4.889   3.072 -0.7469 -0.3167 -0.2539
 1677SOL    HW2 5167   1.042   4.937   3.192  1.6088 -0.8864 -1.5261
 1678SOL     OW 5168   3.332   0.088   4.633 -0.4669 -0.0149  0.2341
 1678SOL    HW1 5169   3.316  -0.005   4.651 -1.9400 -0.0272 -0.9182
 1678SOL    HW2 5170   3.296   0.134   4.709  0.3074 -0.3751  0.8271
 1679SOL     OW 5171   3.929   0.687   0.168  0.1970  0.9005 -0.1138
 1679SOL    HW1 5172   3.981   0.746   0.223 -2.0727  3.4518 -0.4574
 1679SOL    HW2 5173   3.839   0.717   0.180 -0.8694 -1.3251 -1.8663
 1680SOL     OW 5174   1.384   0.419   3.066 -0.2149  0.1825 -0.5198
 1680SOL    HW1 5175   1.415   0.343   3.017 -0.2820 -0.2264  0.0579
 1680SOL    HW2 5176   1.341   0.474   3.001 -0.3445 -0.3677 -0.9070
 1681SOL     OW 5177   2.126   3.703   4.200  0.2419 -0.1098 -0.6133
 1681SOL    HW1 5178   2.036   3.735   4.213 -0.3126 -1.1904 -1.5839
 1681SOL    HW2 5179   2.154   3.742   4.118  0.3725 -0.3544 -0.6865
 1682SOL     OW 5180   3.923   4.555   4.727 -0.1735  0.0987  0.4897
 1682SOL    HW1 5181   3.976   4.593   4.797  1.7311  0.1649 -0.8878
 1682SOL    HW2 5182   3.912   4.463   4.752  1.9978 -0.3297  0.1100
 1683SOL     OW 5183   3.812   2.000   4.866  1.2473  0.0723 -0.0810
 1683SOL    HW1 5184   3.822   1.964   4.778 -0.7282 -2.5531  0.6676
 1683SOL    HW2 5185   3.863   1.941   4.922 -1.9277 -1.7482  1.1540
 1684SOL     OW 5186   3.670   0.149   0.817  0.4052  0.1703  0.2871
 1684SOL    HW1 5187   3.683   0.075   0.757  1.6347  2.1773 -2.1110
 1684SOL    HW2 5188   3.734   0.135   0.886  1.7145 -0.2463 -0.9555
 1685SOL     OW 5189   2.274   1.664   0.795 -0.7565 -0.6774 -0.0655
 1685SOL    HW1 5190   2.244   1.592   0.740 -0.0144 -1.7859  0.9372
 1685SOL    HW2 5191   2.208   1.669   0.864 -2.1046  1.2086 -1.3829
 1686SOL     OW 5192   2.872   0.529   0.238 -0.3992  0.3404 -0.3281
 1686SOL    HW1 5193   2.924   0.504   0.314 -1.2308 -1.4888 -0.3015
 1686SOL    HW2 5194   2.806   0.589   0.272  0.0687  0.6102  0.1200
 1687SOL     OW 5195   0.114   3.609   3.407  0.7119  0.0748 -0.3868
 1687SOL    HW1 5196   0.167   3.566   3.475  0.6631  1.3936  0.5387
 1687SOL    HW2 5197   0.169   3.607   3.329  2.2641  1.5694  0.6015
 1688SOL     OW 5198   1.276   2.150   1.197 -0.0523  0.2375  0.2569
 1688SOL    HW1 5199   1.204   2.099   1.161  0.2394 -1.8811  2.4629
 1688SOL    HW2 5200   1.235   2.204   1.265 -0.0104  1.3709 -0.5956
 1689SOL     OW 5201   0.028   1.674   4.587 -0.5725  0.1909  0.4932
 1689SOL    HW1 5202  -0.067   1.681   4.601 -0.8108  0.4832 -1.1255
 1689SOL    HW2 5203   0.051   1.752   4.537  0.8673  1.0244  2.3108
 1690SOL     OW 5204   4.149   0.323   2.005 -0.0270 -0.3801 -0.1841
 1690SOL    HW1 5205   4.117   0.311   1.915 -1.0235  1.8388 -0.1898
 1690SOL    HW2 5206   4.238   0.355   1.994  1.8120 -4.7792 -0.1920
 1691SOL     OW 5207   1.817   4.414   3.084  0.3667  0.3415  0.0256
 1691SOL    HW1 5208   1.761   4.386   3.156  0.3187  0.1554 -0.0850
 1691SOL    HW2 5209   1.904   4.422   3.123  0.4060 -0.0846  0.0254
 1692SOL     OW 5210   3.118   3.325   1.818  0.0977  0.1537 -0.3371
 1692SOL    HW1 5211   3.195   3.379   1.834  0.7528 -0.3823 -1.5341
 1692SOL    HW2 5212   3.131   3.248   1.873  0.0233  0.4072  0.0421
 1693SOL     OW 5213   0.988   1.936   0.271  0.0666 -0.6455  0.5119
 1693SOL    HW1 5214   0.976   2.029   0.291  0.9111 -0.3382 -0.3061
 1693SOL    HW2 5215   0.901   1.898   0.279 -0.5011  0.4486 -0.2359
 1694SOL     OW 5216   4.890   0.027   1.428 -0.7299 -0.2870  0.1977
 1694SOL    HW1 5217   4.799   0.036   1.455 -0.1808  1.3728  1.7064
 1694SOL    HW2 5218   4.895   0.072   1.343 -1.4206 -0.9368 -0.1966
 1695SOL     OW 5219   4.038   2.944   0.519  0.2569  0.1287  0.8091
 1695SOL    HW1 5220   3.976   2.871   0.514 -0.1974  0.5787 -0.6455
 1695SOL    HW2 5221   4.053   2.956   0.613 -0.2486 -1.3262  1.1073
 1696SOL     OW 5222   3.800   0.269   2.257 -0.0977 -0.1006  0.2657
 1696SOL    HW1 5223   3.883   0.263   2.305 -0.0461  0.9537  0.3442
 1696SOL    HW2 5224   3.738   0.303   2.322  0.3024  2.8028 -0.6891
 1697SOL     OW 5225   1.774   1.126   4.806 -0.2797  0.3978  0.1156
 1697SOL    HW1 5226   1.773   1.185   4.731  2.0875  0.2820 -0.0872
 1697SOL    HW2 5227   1.756   1.040   4.769 -1.9286  0.6950  0.1469
 1698SOL     OW 5228   4.470   0.746   4.721 -0.2971  0.2910  0.5131
 1698SOL    HW1 5229   4.476   0.809   4.793  1.2821  0.4138  0.2966
 1698SOL    HW2 5230   4.535   0.679   4.743 -2.7931 -2.0448  1.4262
 1699SOL     OW 5231   1.632   1.869   3.742  0.8335  0.3899 -0.3121
 1699SOL    HW1 5232   1.587   1.882   3.826  0.0634 -1.2566 -0.4313
 1699SOL    HW2 5233   1.691   1.796   3.757 -0.4790 -1.0197 -1.5782
 1700SOL     OW 5234   3.582   4.902   0.646 -0.4153 -0.0964 -0.6269
 1700SOL    HW1 5235   3.520   4.832   0.666  0.6259 -0.6024  1.0842
 1700SOL    HW2 5236   3.668   4.859   0.649  0.0648  0.5396 -3.1365
 1701SOL     OW 5237   4.057   2.653   2.112 -0.0287 -0.4837 -0.3870
 1701SOL    HW1 5238   4.022   2.574   2.071  0.4473 -0.3198 -1.1331
 1701SOL    HW2 5239   4.125   2.683   2.052 -0.3914  0.6542 -0.2691
 1702SOL     OW 5240   2.482   2.615   4.963 -0.1329 -0.3277  0.5820
 1702SOL    HW1 5241   2.456   2.680   5.028  1.2950  0.7932  0.0919
 1702SOL    HW2 5242   2.576   2.601   4.980  0.0557 -0.6864 -0.6582
 1703SOL     OW 5243   3.685   3.199   1.264 -0.0523  0.0243  0.1494
 1703SOL    HW1 5244   3.719   3.154   1.341  0.9301  0.7344  0.1453
 1703SOL    HW2 5245   3.627   3.266   1.300  1.0906  0.9365  0.3363
 1704SOL     OW 5246   4.182   4.553   2.520 -0.1441  0.0877  0.0117
 1704SOL    HW1 5247   4.101   4.589   2.483  0.2769  1.6534  0.5291
 1704SOL    HW2 5248   4.180   4.460   2.497 -1.7957  0.2185 -0.4967
 1705SOL     OW 5249   0.946   3.161   2.016  0.5990 -0.5836  0.3522
 1705SOL    HW1 5250   1.000   3.195   2.087 -0.8944  0.8513  0.8521
 1705SOL    HW2 5251   1.007   3.111   1.962  2.3569  0.6921  1.0571
 1706SOL     OW 5252   0.489   3.288   0.005  0.5188  0.1197  0.1087
 1706SOL    HW1 5253   0.447   3.313   0.088 -2.0347 -0.8522 -0.8029
 1706SOL    HW2 5254   0.558   3.227   0.031 -1.7388 -2.0519  1.4915
 1707SOL     OW 5255   4.259   0.884   4.015  0.4549 -0.2999 -0.1964
 1707SOL    HW1 5256   4.282   0.801   3.974  2.3717 -1.4331  2.7715
 1707SOL    HW2 5257   4.165   0.877   4.034  0.0033 -0.5751 -2.3632
 1708SOL     OW 5258   3.298   2.365   1.907 -0.3301 -0.2993 -0.6117
 1708SOL    HW1 5259   3.368   2.347   1.970 -1.1442  2.5270  1.2343
 1708SOL    HW2 5260   3.240   2.289   1.914 -0.9370  0.2997  2.9369
 1709SOL     OW 5261   4.197   3.603   3.408  0.3419  0.9261  0.2994
 1709SOL    HW1 5262   4.165   3.690   3.429 -0.0462  0.9190 -0.2424
 1709SOL    HW2 5263   4.159   3.583   3.322  0.1190  0.0722  0.5895
 1710SOL     OW 5264   1.690   0.537   3.370 -0.0813 -0.4554 -0.5737
 1710SOL    HW1 5265   1.666   0.445   3.380 -1.1037 -0.0915  0.5153
 1710SOL    HW2 5266   1.610   0.579   3.338 -0.2287  0.3792  0.8503
 1711SOL     OW 5267   2.428   0.388   1.222 -0.0332  0.0316  0.6285
 1711SOL    HW1 5268   2.470   0.385   1.308  1.3989 -1.7847 -0.0751
 1711SOL    HW2 5269   2.358   0.323   1.226  0.6718 -0.7735  0.1322
 1712SOL     OW 5270   1.704   1.113   2.170  0.0036  0.5654  0.6981
 1712SOL    HW1 5271   1.674   1.107   2.261  0.8342 -0.6449  0.9116
 1712SOL    HW2 5272   1.645   1.055   2.122  1.2373 -0.9753  0.9468
 1713SOL     OW 5273   1.457   3.692   4.424 -0.0271 -0.1780 -0.2871
 1713SOL    HW1 5274   1.428   3.777   4.459  1.2859  0.3927 -0.5290
 1713SOL    HW2 5275   1.384   3.664   4.369 -1.5590 -0.4423  1.7388
 1714SOL     OW 5276   0.095   4.921   4.072 -0.1621  0.5641 -0.3725
 1714SOL    HW1 5277   0.132   4.833   4.078  0.4225  0.8837  1.7920
 1714SOL    HW2 5278   0.024   4.913   4.008 -1.1983 -1.9131  0.9344
 1715SOL     OW 5279   3.099   3.581   1.217 -0.2240  0.8424  0.4405
 1715SOL    HW1 5280   3.170   3.531   1.175 -1.2383  0.1068 -0.4559
 1715SOL    HW2 5281   3.084   3.536   1.300 -0.6704  0.0350 -0.0605
 1716SOL     OW 5282   0.339   2.905   3.524 -0.0605 -0.1179 -0.4719
 1716SOL    HW1 5283   0.428   2.906   3.489  0.5481  1.9264  0.8964
 1716SOL    HW2 5284   0.283   2.881   3.450  1.5398 -0.4939 -1.6004
 1717SOL     OW 5285   4.903   3.128   4.009 -0.1970  0.3141  0.2491
 1717SOL    HW1 5286   4.882   3.141   3.917 -0.2157  1.7863  0.4465
 1717SOL    HW2 5287   4.821   3.098   4.049  0.0283 -1.2090 -0.3456
 1718SOL     OW 5288   1.890   1.375   1.623  0.4283 -0.1457  0.5259
 1718SOL    HW1 5289   1.897   1.322   1.543 -4.8993 -0.6469  0.0477
 1718SOL    HW2 5290   1.910   1.315   1.694 -2.3694 -2.1203 -0.1981
 1719SOL     OW 5291   0.319   0.174   0.946 -0.3272 -0.0334  0.0573
 1719SOL    HW1 5292   0.389   0.111   0.965 -3.3900 -3.0003  2.7987
 1719SOL    HW2 5293   0.335   0.246   1.006  0.3077 -0.7263  0.7362
 1720SOL     OW 5294   1.214   4.495   1.721  0.5663 -0.3893  0.1453
 1720SOL    HW1 5295   1.249   4.533   1.640 -1.0230 -1.0244 -0.9016
 1720SOL    HW2 5296   1.281   4.434   1.750  2.0087  1.2417  0.4130
 1721SOL     OW 5297   4.303   0.523   0.390 -0.3551 -0.3760 -0.0126
 1721SOL    HW1 5298   4.389   0.555   0.417 -0.3016 -0.1257 -0.4720
 1721SOL    HW2 5299   4.243   0.596   0.406 -0.3250 -0.2267 -0.5434
 1722SOL     OW 5300   3.986   0.244   1.482  0.1302 -0.0741 -0.5671
 1722SOL    HW1 5301   3.989   0.301   1.558 -0.9101 -1.8143  0.8609
 1722SOL    HW2 5302   4.061   0.186   1.492  0.1946 -0.0880 -1.0736
 1723SOL     OW 5303   0.909   0.182   4.737 -0.0148 -0.6289 -0.4742
 1723SOL    HW1 5304   0.850   0.253   4.761 -0.7709 -1.7631  1.1383
 1723SOL    HW2 5305   0.972   0.223   4.677 -0.5796  1.3346  0.2004
 1724SOL     OW 5306   0.306   0.563   1.754  0.1098  0.0091  0.1538
 1724SOL    HW1 5307   0.228   0.583   1.702  0.0132 -1.6356 -0.3974
 1724SOL    HW2 5308   0.379   0.583   1.696  0.1336  1.4622  0.6378
 1725SOL     OW 5309   1.997   1.650   4.573  0.1666 -0.1102 -0.2240
 1725SOL    HW1 5310   2.072   1.643   4.515  0.6861  0.4316  0.3669
 1725SOL    HW2 5311   2.014   1.586   4.642  0.5212  0.6104  0.3716
 1726SOL     OW 5312   1.263   0.364   3.808  0.3490 -0.1726  0.2400
 1726SOL    HW1 5313   1.222   0.421   3.743 -0.0398  1.2818  1.6924
 1726SOL    HW2 5314   1.253   0.276   3.773  0.0348  0.5569 -1.5876
 1727SOL     OW 5315   4.183   4.592   3.157  0.6805  0.1538  0.1649
 1727SOL    HW1 5316   4.161   4.499   3.151 -1.3538  0.5481  0.7106
 1727SOL    HW2 5317   4.190   4.608   3.251  0.0308  0.7592  0.1106
 1728SOL     OW 5318   1.342   4.917   2.490 -0.4942 -0.0208 -0.1829
 1728SOL    HW1 5319   1.344   4.923   2.394  2.5179 -1.4072 -0.3261
 1728SOL    HW2 5320   1.390   4.993   2.520  2.1526 -1.6084 -0.0754
 1729SOL     OW 5321   0.063   0.845   0.446 -0.1137  0.0178 -0.0330
 1729SOL    HW1 5322   0.008   0.833   0.523 -0.2172 -1.9000 -0.3574
 1729SOL    HW2 5323   0.006   0.885   0.381 -0.7411 -0.6638  0.0888
 1730SOL     OW 5324   0.917   1.636   2.162  0.3768 -0.2085  0.1811
 1730SOL    HW1 5325   0.849   1.575   2.192  0.9832 -0.3647  1.2670
 1730SOL    HW2 5326   0.900   1.645   2.068 -3.8638  3.0767  0.9370
 1731SOL     OW 5327   4.355   0.012   0.793 -0.2389  0.8484  0.3273
 1731SOL    HW1 5328   4.428   0.053   0.746  0.7941 -0.2048  0.9513
 1731SOL    HW2 5329   4.386   0.005   0.883  0.1373 -2.3040  0.0596
 1732SOL     OW 5330   4.519   2.779   3.409  0.0702 -0.6321  0.2581
 1732SOL    HW1 5331   4.516   2.782   3.313 -0.9464  0.5521  0.3022
 1732SOL    HW2 5332   4.598   2.829   3.432 -0.5085  0.3862  0.0701
 1733SOL     OW 5333   3.830   2.982   4.657 -0.7028  0.4862  0.0382
 1733SOL    HW1 5334   3.925   2.984   4.669 -0.2447  1.2062 -2.8933
 1733SOL    HW2 5335   3.799   3.060   4.702  0.0596  0.1455  1.1846
 1734SOL     OW 5336   4.850   1.987   0.595 -0.0634  0.1659 -0.3824
 1734SOL    HW1 5337   4.820   1.962   0.508 -0.3790 -0.5852 -0.0656
 1734SOL    HW2 5338   4.808   2.071   0.612  0.0998  0.3779 -1.0013
 1735SOL     OW 5339   4.718   2.889   2.895  0.3161  0.3591  0.4590
 1735SOL    HW1 5340   4.641   2.875   2.840 -1.1758 -0.8459  2.6927
 1735SOL    HW2 5341   4.769   2.808   2.887  1.4696  1.1920 -1.0918
 1736SOL     OW 5342   2.922   1.527   0.638 -0.7797 -0.3603  0.0313
 1736SOL    HW1 5343   2.833   1.496   0.623 -1.4862  1.4105  0.2969
 1736SOL    HW2 5344   2.964   1.523   0.552 -2.1186  1.6760 -0.7960
 1737SOL     OW 5345   2.439   2.431   4.774 -0.4409 -0.0747 -0.2521
 1737SOL    HW1 5346   2.443   2.508   4.830 -1.8586  0.6104 -1.0372
 1737SOL    HW2 5347   2.473   2.360   4.828 -1.0648  0.7072  1.2141
 1738SOL     OW 5348   0.833   3.010   3.093  0.3028 -0.5097  0.3260
 1738SOL    HW1 5349   0.913   3.045   3.053  0.1063  0.7460  0.9648
 1738SOL    HW2 5350   0.861   2.932   3.139  1.4920  0.7117  1.7785
 1739SOL     OW 5351   3.984   0.304   4.243 -0.1240  0.4579 -0.0573
 1739SOL    HW1 5352   3.953   0.331   4.156  0.0923  0.5242 -0.1134
 1739SOL    HW2 5353   3.905   0.271   4.286 -0.5074  1.6695  0.2100
 1740SOL     OW 5354   0.641   0.514   3.513 -0.6436 -0.5020 -0.2268
 1740SOL    HW1 5355   0.703   0.548   3.577  1.1022  0.7250 -2.3881
 1740SOL    HW2 5356   0.606   0.592   3.469  0.0985 -1.2949 -2.3640
 1741SOL     OW 5357   0.343   0.507   4.485  0.3180 -0.2896 -0.1744
 1741SOL    HW1 5358   0.291   0.427   4.491  1.1734 -0.7717  1.1437
 1741SOL    HW2 5359   0.304   0.555   4.412 -1.4041 -1.0250  0.2245
 1742SOL     OW 5360   2.969   2.479   4.851 -0.1869  0.2338  0.1809
 1742SOL    HW1 5361   3.037   2.520   4.905  0.4711  0.6244 -0.9052
 1742SOL    HW2 5362   2.966   2.533   4.771 -2.1491  0.5370  0.4092
 1743SOL     OW 5363   4.640   3.720   3.684 -0.1783  0.4364  0.2001
 1743SOL    HW1 5364   4.654   3.759   3.771  0.7447  1.0478 -0.2050
 1743SOL    HW2 5365   4.683   3.635   3.688  0.4968  0.7618  0.1381
 1744SOL     OW 5366   3.814   0.851   3.218  0.2322 -0.3094 -0.0913
 1744SOL    HW1 5367   3.748   0.857   3.149  1.0707 -1.4161 -1.0328
 1744SOL    HW2 5368   3.782   0.781   3.275  0.5334 -0.7976 -0.5089
 1745SOL     OW 5369   4.929   1.635   1.499  0.3771 -0.1219 -0.3413
 1745SOL    HW1 5370   4.860   1.702   1.501  1.1899  1.0338 -3.7866
 1745SOL    HW2 5371   5.010   1.684   1.489  1.0464 -1.5059 -2.4401
 1746SOL     OW 5372   4.753   0.207   2.210  0.2551  0.5177 -0.2205
 1746SOL    HW1 5373   4.803   0.197   2.291  2.0015 -1.4503 -1.4523
 1746SOL    HW2 5374   4.811   0.256   2.152 -1.4587  3.0039  0.0012
 1747SOL     OW 5375   3.534   3.444   4.841  0.0482 -0.1235 -0.5068
 1747SOL    HW1 5376   3.535   3.357   4.802 -1.8670  0.0313 -1.0164
 1747SOL    HW2 5377   3.593   3.438   4.916 -0.0452 -1.8651 -0.5376
 1748SOL     OW 5378   4.274   3.930   1.368 -0.7279  0.0462  0.1586
 1748SOL    HW1 5379   4.212   3.974   1.427 -1.6415  1.4772 -1.7585
 1748SOL    HW2 5380   4.233   3.845   1.349 -0.1566 -0.6686  1.9412
 1749SOL     OW 5381   3.945   4.601   2.348  0.0485 -0.3181 -0.2100
 1749SOL    HW1 5382   3.993   4.599   2.266  0.0565 -0.7849 -0.1942
 1749SOL    HW2 5383   3.878   4.533   2.339 -1.1580  0.8794 -0.5678
 1750SOL     OW 5384   3.359   2.262   4.749 -0.2225 -0.3451  0.3633
 1750SOL    HW1 5385   3.343   2.279   4.842 -1.0166 -0.7876  0.3137
 1750SOL    HW2 5386   3.367   2.167   4.742  2.8177 -0.1783  0.4174
 1751SOL     OW 5387   3.297   3.322   1.122 -0.1590  0.0597  0.1342
 1751SOL    HW1 5388   3.274   3.369   1.042 -0.7203 -0.9929 -0.3448
 1751SOL    HW2 5389   3.350   3.248   1.092 -3.5819 -2.6480  0.1810
 1752SOL     OW 5390   3.386   0.681   3.671  0.3913  0.4613  0.3405
 1752SOL    HW1 5391   3.322   0.609   3.666  1.1012 -0.1498 -0.2093
 1752SOL    HW2 5392   3.380   0.722   3.585  1.0933  0.0793  0.1015
 1753SOL     OW 5393   4.061   4.195   3.652 -0.0865  0.1915 -0.4636
 1753SOL    HW1 5394   4.058   4.101   3.665  0.1847  0.0873 -1.1605
 1753SOL    HW2 5395   4.122   4.208   3.580 -1.6001  0.7620 -1.6912
 1754SOL     OW 5396   4.890   0.019   1.707  0.6286  0.0846 -0.6747
 1754SOL    HW1 5397   4.902   0.110   1.733 -2.5100  0.5533 -0.5870
 1754SOL    HW2 5398   4.903   0.019   1.612  1.3951  0.4261 -0.5831
 1755SOL     OW 5399   2.499   4.661   1.835 -0.1717  0.6579 -0.0336
 1755SOL    HW1 5400   2.560   4.609   1.887 -1.0730  1.4478  1.9210
 1755SOL    HW2 5401   2.415   4.616   1.843 -0.5564  1.3783  0.1526
 1756SOL     OW 5402   2.135   2.036   2.873  1.0818 -0.0011 -0.8629
 1756SOL    HW1 5403   2.075   2.065   2.942 -0.4566 -1.8225 -1.3623
 1756SOL    HW2 5404   2.195   1.976   2.917  0.6845 -0.4444 -0.9218
 1757SOL     OW 5405   0.323   3.362   3.867 -0.3253 -0.0797  0.1968
 1757SOL    HW1 5406   0.378   3.415   3.926 -0.2488  0.2923 -0.2002
 1757SOL    HW2 5407   0.379   3.290   3.840  0.1350  0.5573 -0.5802
 1758SOL     OW 5408   1.548   4.183   2.123  0.1726  0.2848  0.0056
 1758SOL    HW1 5409   1.561   4.137   2.040  1.6917 -2.1840  1.4827
 1758SOL    HW2 5410   1.604   4.261   2.116  0.6825 -0.1542 -1.0689
 1759SOL     OW 5411   2.588   1.713   3.731  0.5956  0.0786  0.3960
 1759SOL    HW1 5412   2.533   1.738   3.657  0.3022  0.8503  0.8550
 1759SOL    HW2 5413   2.675   1.746   3.709  0.5140  0.2843  0.3818
 1760SOL     OW 5414   4.692   4.889   0.268 -0.7484  0.0844 -0.1711
 1760SOL    HW1 5415   4.746   4.951   0.218  0.3630 -0.4971  0.2720
 1760SOL    HW2 5416   4.743   4.808   0.268 -0.7806  0.0267  1.8078
 1761SOL     OW 5417   1.056   1.451   4.957 -0.2349 -0.0870  0.0537
 1761SOL    HW1 5418   1.007   1.408   5.027 -0.3721  0.6690  0.4360
 1761SOL    HW2 5419   1.148   1.444   4.985 -0.3023  0.3554  0.3997
 1762SOL     OW 5420   0.533   0.730   3.385  0.0667 -0.3249  0.0786
 1762SOL    HW1 5421   0.525   0.822   3.411  1.7051  0.3087 -1.4146
 1762SOL    HW2 5422   0.444   0.697   3.381 -0.9546  2.3510 -3.1582
 1763SOL     OW 5423   1.726   2.610   3.317 -0.4430 -0.0259  0.2881
 1763SOL    HW1 5424   1.691   2.634   3.403 -1.5400 -2.0672  0.4735
 1763SOL    HW2 5425   1.813   2.573   3.336  0.6713  2.3562  0.1361
 1764SOL     OW 5426   4.049   2.248   3.078 -0.9698 -0.1404  0.5085
 1764SOL    HW1 5427   4.121   2.305   3.053 -0.4409 -1.3816 -0.9828
 1764SOL    HW2 5428   4.090   2.179   3.131 -1.5964  0.7583  2.2753
 1765SOL     OW 5429   3.416   2.728   4.553 -0.0387  0.2031 -0.2748
 1765SOL    HW1 5430   3.389   2.709   4.463  0.2438  1.7252 -0.7165
 1765SOL    HW2 5431   3.498   2.777   4.544  0.4857 -0.4117  0.8628
 1766SOL     OW 5432   0.486   3.476   4.774  0.4024  0.4039  0.3963
 1766SOL    HW1 5433   0.573   3.447   4.745 -0.0201 -0.9420  0.3689
 1766SOL    HW2 5434   0.482   3.450   4.867 -0.6893 -1.4803 -0.1089
 1767SOL     OW 5435   0.313   3.907   3.121  0.0957  0.1842  0.2557
 1767SOL    HW1 5436   0.284   3.996   3.141 -0.7834  1.1408 -4.1210
 1767SOL    HW2 5437   0.407   3.916   3.101 -0.0762  0.2864 -0.5693
 1768SOL     OW 5438   4.921   1.924   1.441  0.5046 -0.5445 -0.8750
 1768SOL    HW1 5439   4.912   1.991   1.509 -2.2952 -1.5953 -0.1023
 1768SOL    HW2 5440   5.008   1.887   1.456 -0.1761 -1.0831  2.5603
 1769SOL     OW 5441   3.492   0.619   0.299  0.4789  0.2507  1.3520
 1769SOL    HW1 5442   3.411   0.584   0.260  1.3813 -0.0512 -0.3677
 1769SOL    HW2 5443   3.463   0.663   0.379 -1.6423  1.6609 -0.0714
 1770SOL     OW 5444   4.026   4.970   1.962 -0.3234  0.1584  1.0805
 1770SOL    HW1 5445   3.947   4.977   2.015  0.1747  0.5180  1.7924
 1770SOL    HW2 5446   4.092   4.935   2.021  0.2362  0.5372  0.6900
 1771SOL     OW 5447   1.779   2.701   4.670  0.2372 -0.3091  0.1015
 1771SOL    HW1 5448   1.748   2.786   4.640  1.7450  0.5558  0.8531
 1771SOL    HW2 5449   1.866   2.693   4.631  0.9191 -0.5896  1.6213
 1772SOL     OW 5450   2.494   3.410   3.441  0.4107  0.4566 -0.4313
 1772SOL    HW1 5451   2.558   3.378   3.504 -0.0503  1.2316  0.4665
 1772SOL    HW2 5452   2.432   3.461   3.493 -1.0009 -0.3390 -1.2597
 1773SOL     OW 5453   0.480   1.492   4.564  0.1340 -0.0821  0.5368
 1773SOL    HW1 5454   0.532   1.459   4.638  0.6404 -1.6046 -0.4458
 1773SOL    HW2 5455   0.475   1.418   4.503 -2.6220  0.2384  0.2495
 1774SOL     OW 5456   2.296   1.078   4.413  0.0369 -0.1338  0.5528
 1774SOL    HW1 5457   2.303   1.035   4.328  0.0380  0.1573  0.4072
 1774SOL    HW2 5458   2.295   1.005   4.476 -1.7178 -0.4600  0.2074
 1775SOL     OW 5459   1.431   1.811   1.907  0.0006 -0.0549  0.1743
 1775SOL    HW1 5460   1.417   1.876   1.976  0.3402  0.7866 -0.5329
 1775SOL    HW2 5461   1.377   1.737   1.933  1.6531 -0.5974  2.4164
 1776SOL     OW 5462   1.672   3.776   3.960  0.1476 -0.0337 -0.0603
 1776SOL    HW1 5463   1.674   3.731   4.045  0.7975 -0.8725 -0.5011
 1776SOL    HW2 5464   1.634   3.861   3.979 -0.1476 -0.3824  0.9944
 1777SOL     OW 5465   3.982   4.284   4.822 -0.1925  0.0245  0.0386
 1777SOL    HW1 5466   3.921   4.255   4.891 -1.4853  1.0907 -0.6132
 1777SOL    HW2 5467   3.985   4.210   4.761 -0.6199 -0.1517  0.2215
 1778SOL     OW 5468   4.244   1.263   4.203  0.2770  0.6328 -0.5247
 1778SOL    HW1 5469   4.214   1.216   4.126 -0.0962  1.7563 -1.0839
 1778SOL    HW2 5470   4.328   1.301   4.178 -0.0512  1.3644 -0.5380
 1779SOL     OW 5471   3.560   4.844   2.136 -0.3040 -0.0125 -0.1345
 1779SOL    HW1 5472   3.507   4.918   2.164  0.4652  0.0012  1.3992
 1779SOL    HW2 5473   3.594   4.807   2.218  0.3832 -1.2601 -0.9535
 1780SOL     OW 5474   1.784   0.359   2.263 -0.1691  0.1214  0.0164
 1780SOL    HW1 5475   1.791   0.424   2.194 -1.1401  0.3406  0.1086
 1780SOL    HW2 5476   1.704   0.383   2.311 -0.7402 -1.3203 -0.1555
 1781SOL     OW 5477   2.280   1.153   1.809 -0.6052  0.4601  0.4544
 1781SOL    HW1 5478   2.331   1.081   1.846  1.0769  0.8611 -0.9509
 1781SOL    HW2 5479   2.190   1.121   1.809 -0.2059 -0.7657  1.8777
 1782SOL     OW 5480   2.081   1.152   3.767  0.6922 -0.6734  0.1297
 1782SOL    HW1 5481   2.143   1.171   3.697  1.4234 -1.8398  0.4384
 1782SOL    HW2 5482   2.048   1.065   3.746 -2.3890  0.6517 -1.1338
 1783SOL     OW 5483   0.291   4.283   0.667  0.6250 -0.1075 -0.3966
 1783SOL    HW1 5484   0.225   4.353   0.667  0.4380 -0.2835 -0.4320
 1783SOL    HW2 5485   0.366   4.321   0.714  0.1052 -0.2704  0.6049
 1784SOL     OW 5486   2.297   2.054   3.437 -0.6120  0.2752  0.2937
 1784SOL    HW1 5487   2.304   1.983   3.500 -4.2522 -0.5414  0.0041
 1784SOL    HW2 5488   2.244   2.120   3.480 -0.9809  0.8502 -0.9844
 1785SOL     OW 5489   2.560   2.272   1.626 -0.2653  0.1190  0.4125
 1785SOL    HW1 5490   2.488   2.285   1.563 -1.8585  2.5525  2.5512
 1785SOL    HW2 5491   2.622   2.342   1.606  1.9102 -2.2412 -1.7195
 1786SOL     OW 5492   3.936   0.919   3.540  0.0299  0.0745  0.6208
 1786SOL    HW1 5493   3.961   0.830   3.567  0.8043  0.2498  0.5034
 1786SOL    HW2 5494   3.841   0.915   3.530  0.3215 -1.7811 -3.0114
 1787SOL     OW 5495   2.092   0.712   4.873 -0.0095  0.7441 -0.0914
 1787SOL    HW1 5496   2.119   0.626   4.904 -0.5971  0.5958  0.0343
 1787SOL    HW2 5497   2.146   0.774   4.922 -0.1707  0.4743  0.4314
 1788SOL     OW 5498   4.540   2.409   2.164  0.1336 -0.4288  0.9266
 1788SOL    HW1 5499   4.563   2.318   2.146  2.2141 -0.1586  1.8747
 1788SOL    HW2 5500   4.458   2.404   2.213  0.7828 -1.8827  1.9301
 1789SOL     OW 5501   2.212   3.273   4.744  0.3712 -0.0487  0.2084
 1789SOL    HW1 5502   2.177   3.340   4.685  0.4164 -1.1745 -1.1408
 1789SOL    HW2 5503   2.158   3.280   4.823  0.4547  1.6330  0.1576
 1790SOL     OW 5504   0.417   1.771   4.257 -0.1443 -0.0826 -0.5602
 1790SOL    HW1 5505   0.364   1.692   4.268 -0.7173  0.5161  1.3161
 1790SOL    HW2 5506   0.362   1.842   4.289  1.0903  0.8078 -0.3216
 1791SOL     OW 5507   4.841   2.401   3.977 -0.4872 -0.3429  0.5706
 1791SOL    HW1 5508   4.763   2.385   3.924  0.4485 -1.1118 -0.6282
 1791SOL    HW2 5509   4.910   2.353   3.932  0.2628 -1.4544  2.7774
 1792SOL     OW 5510   3.072   0.366   0.151  0.2513 -0.0959 -0.3432
 1792SOL    HW1 5511   3.091   0.273   0.159  0.5224 -0.0320 -0.2378
 1792SOL    HW2 5512   2.978   0.370   0.135  0.5284 -0.5033 -2.3031
 1793SOL     OW 5513   2.576   3.142   0.418  0.0820 -0.1057  0.6475
 1793SOL    HW1 5514   2.658   3.097   0.398 -0.6697 -0.6212 -1.5594
 1793SOL    HW2 5515   2.601   3.234   0.429  0.7951  0.0296 -1.6461
 1794SOL     OW 5516   1.747   0.562   2.079 -0.4903 -0.8570 -0.4240
 1794SOL    HW1 5517   1.653   0.575   2.091 -0.6541 -1.4017 -1.0962
 1794SOL    HW2 5518   1.754   0.499   2.007  0.2915 -3.4805  1.7776
 1795SOL     OW 5519   3.761   4.616   1.142 -0.1835  0.5028 -0.1614
 1795SOL    HW1 5520   3.725   4.559   1.074  0.7585  1.1278 -1.2156
 1795SOL    HW2 5521   3.853   4.594   1.146 -0.1647  0.6957  0.7078
 1796SOL     OW 5522   0.153   0.204   3.459 -0.1543  0.7570  0.2116
 1796SOL    HW1 5523   0.177   0.192   3.367  0.0807  2.7802 -0.0376
 1796SOL    HW2 5524   0.234   0.231   3.502 -0.7293  2.0882  0.5119
 1797SOL     OW 5525   3.176   3.294   1.565  0.3180  0.2572 -0.0481
 1797SOL    HW1 5526   3.117   3.339   1.505 -0.2301 -1.1690 -0.6254
 1797SOL    HW2 5527   3.141   3.314   1.652  1.2932  2.5749 -0.1380
 1798SOL     OW 5528   0.968   3.538   3.727 -0.6624  0.0531  0.1001
 1798SOL    HW1 5529   0.976   3.633   3.721 -2.5009  0.3279  1.1247
 1798SOL    HW2 5530   0.932   3.512   3.642  1.1792  0.0452 -0.7232
 1799SOL     OW 5531   0.980   1.070   2.420 -0.1484 -0.2050 -0.6643
 1799SOL    HW1 5532   0.917   1.076   2.348 -0.1460 -1.5141 -0.7941
 1799SOL    HW2 5533   1.048   1.134   2.398 -1.8463  1.9107 -0.0668
 1800SOL     OW 5534   4.135   4.715   1.831  0.3714  0.0087  0.1434
 1800SOL    HW1 5535   4.107   4.791   1.882 -1.2892  0.9838 -2.0486
 1800SOL    HW2 5536   4.113   4.738   1.741  2.2187 -2.0463 -0.9130
 1801SOL     OW 5537   0.974   1.381   3.762  0.0622  0.9300 -0.4682
 1801SOL    HW1 5538   0.884   1.360   3.788  0.3695 -0.5946 -0.5404
 1801SOL    HW2 5539   0.989   1.469   3.798 -0.9225  0.5718  0.9312
 1802SOL     OW 5540   4.863   4.292   3.074 -0.6649 -0.0073 -0.6726
 1802SOL    HW1 5541   4.883   4.259   3.161 -0.2572  0.9582 -0.3878
 1802SOL    HW2 5542   4.768   4.286   3.067 -0.8670  1.4525  0.4862
 1803SOL     OW 5543   2.868   0.738   4.410 -0.5244 -0.0940  0.6462
 1803SOL    HW1 5544   2.813   0.773   4.340 -0.1575 -3.5148 -1.5688
 1803SOL    HW2 5545   2.943   0.798   4.413 -0.6807  0.3393 -1.7610
 1804SOL     OW 5546   3.440   3.248   4.348 -0.1591  0.5350  0.4969
 1804SOL    HW1 5547   3.361   3.258   4.296  0.2610  1.6461  0.0523
 1804SOL    HW2 5548   3.470   3.337   4.365  0.9076  0.1402  0.8030
 1805SOL     OW 5549   1.637   0.059   1.070  0.4658 -0.2691  1.0261
 1805SOL    HW1 5550   1.663   0.143   1.033 -2.3478  0.3989  0.2983
 1805SOL    HW2 5551   1.675  -0.006   1.011 -0.8942  0.6847 -1.0267
 1806SOL     OW 5552   3.903   2.225   3.551 -0.0692 -0.0524 -0.0284
 1806SOL    HW1 5553   3.870   2.217   3.640  2.5480  2.2487  1.3288
 1806SOL    HW2 5554   3.992   2.190   3.555 -0.7434 -2.4264 -2.5209
 1807SOL     OW 5555   1.106   3.766   4.900  0.0257 -0.2899 -0.2080
 1807SOL    HW1 5556   1.035   3.817   4.939  0.6702  0.9376 -0.5692
 1807SOL    HW2 5557   1.091   3.677   4.929 -1.5814 -0.0315 -0.1609
 1808SOL     OW 5558   3.038   4.865   0.693  0.4284 -0.3435  0.8596
 1808SOL    HW1 5559   2.999   4.936   0.642  0.9956  0.3364  1.3453
 1808SOL    HW2 5560   2.985   4.860   0.772 -0.1570 -1.0731  0.4272
 1809SOL     OW 5561   0.700   4.682   4.958  0.2115 -0.2435 -0.2596
 1809SOL    HW1 5562   0.748   4.755   4.917  2.0021 -0.7277  0.8640
 1809SOL    HW2 5563   0.608   4.700   4.939  0.6314  2.1208 -0.3161
 1810SOL     OW 5564   4.409   3.798   4.056  0.5219  0.6600 -0.0255
 1810SOL    HW1 5565   4.377   3.778   3.968 -2.3929  3.1279  0.3006
 1810SOL    HW2 5566   4.368   3.881   4.078  1.3974  0.3019  3.5891
 1811SOL     OW 5567   3.082   0.885   4.441  0.1318  0.3528  0.1771
 1811SOL    HW1 5568   3.077   0.820   4.511  1.2781 -2.8687 -2.4761
 1811SOL    HW2 5569   3.165   0.931   4.457  0.8876 -1.0447  0.4219
 1812SOL     OW 5570   1.224   4.127   2.864 -0.5992 -0.0734  0.4931
 1812SOL    HW1 5571   1.305   4.075   2.869 -0.2895  0.4904  1.8365
 1812SOL    HW2 5572   1.248   4.210   2.905 -1.4437  0.6678 -0.4918
 1813SOL     OW 5573   4.066   2.507   2.892  0.8860 -0.1854 -0.6095
 1813SOL    HW1 5574   4.112   2.486   2.811  1.2900  2.0689 -1.0250
 1813SOL    HW2 5575   4.120   2.469   2.961  1.2837 -0.9334 -1.3195
 1814SOL     OW 5576   3.058   2.932   1.337  0.3841 -0.1306  0.1319
 1814SOL    HW1 5577   3.147   2.899   1.324 -0.0857 -1.8682  0.9210
 1814SOL    HW2 5578   3.005   2.852   1.347 -0.8571  0.8741  2.1805
 1815SOL     OW 5579   0.203   3.713   4.705  0.1224  0.0304  0.1667
 1815SOL    HW1 5580   0.265   3.695   4.634 -0.5919  0.8503 -0.6986
 1815SOL    HW2 5581   0.216   3.806   4.724 -1.9276  0.6562 -1.1581
 1816SOL     OW 5582   2.502   2.675   0.930  0.0392 -0.3044  0.5917
 1816SOL    HW1 5583   2.435   2.741   0.939 -0.7287 -0.8743 -0.6685
 1816SOL    HW2 5584   2.542   2.692   0.845  0.3299 -1.0133  0.5747
 1817SOL     OW 5585   1.789   3.120   3.054 -1.0405  0.4134  0.5112
 1817SOL    HW1 5586   1.754   3.038   3.088  1.4001 -1.1114 -0.3693
 1817SOL    HW2 5587   1.848   3.150   3.123 -1.9521  1.4930  0.8429
 1818SOL     OW 5588   2.691   2.753   4.142 -0.0372  0.2925  0.3184
 1818SOL    HW1 5589   2.599   2.737   4.121 -0.1199  0.7757  0.3041
 1818SOL    HW2 5590   2.720   2.815   4.076  0.3161  0.1043  0.2948
 1819SOL     OW 5591   1.008   1.859   1.705  0.8818 -0.0880  0.2658
 1819SOL    HW1 5592   1.016   1.882   1.613  1.8905 -1.2537  0.0434
 1819SOL    HW2 5593   0.914   1.864   1.723  0.7259  0.6886 -0.6598
 1820SOL     OW 5594   4.727   3.454   0.308  0.7427 -0.0077  0.1543
 1820SOL    HW1 5595   4.763   3.485   0.225  0.9123  0.2434  0.3209
 1820SOL    HW2 5596   4.637   3.487   0.309  1.2975  1.5814  0.8965
 1821SOL     OW 5597   1.322   1.424   0.045  0.2816  0.2712  0.2901
 1821SOL    HW1 5598   1.403   1.379   0.071 -2.0292 -2.3734  3.8207
 1821SOL    HW2 5599   1.330   1.512   0.082  1.3741 -0.0499  0.8653
 1822SOL     OW 5600   0.602   1.322   4.764  0.2565 -0.2232 -0.2559
 1822SOL    HW1 5601   0.612   1.242   4.714  1.4809  0.8225 -1.7940
 1822SOL    HW2 5602   0.686   1.333   4.809 -0.7039 -0.9612  1.8370
 1823SOL     OW 5603   4.506   1.906   3.833  0.1464  0.1891 -0.4737
 1823SOL    HW1 5604   4.458   1.823   3.831 -0.2594  0.4345 -2.2288
 1823SOL    HW2 5605   4.538   1.912   3.924  1.3942 -2.5543 -0.6033
 1824SOL     OW 5606   3.670   3.011   3.883 -0.1085  0.5798 -0.2041
 1824SOL    HW1 5607   3.677   2.987   3.976 -1.9556  0.7906  0.0279
 1824SOL    HW2 5608   3.655   3.106   3.884 -0.5385  0.5194 -0.6893
 1825SOL     OW 5609   2.951   2.186   1.994 -0.1776  0.0865  0.1039
 1825SOL    HW1 5610   2.936   2.244   1.919 -0.5478 -1.4258 -1.0541
 1825SOL    HW2 5611   2.870   2.192   2.045 -0.2897  0.4261 -0.1068
 1826SOL     OW 5612   3.824   4.199   3.387 -0.3153 -0.0761  0.6914
 1826SOL    HW1 5613   3.860   4.111   3.386 -0.9164 -0.3181  0.1649
 1826SOL    HW2 5614   3.735   4.189   3.421  0.4414  0.6750  3.1530
 1827SOL     OW 5615   2.460   0.651   2.355 -0.4547 -1.0511  0.1574
 1827SOL    HW1 5616   2.519   0.621   2.424 -0.7738  1.4500  1.6496
 1827SOL    HW2 5617   2.375   0.662   2.398  0.0019  3.5480  0.4344
 1828SOL     OW 5618   3.733   3.808   3.022  0.4173  0.1437 -0.4516
 1828SOL    HW1 5619   3.643   3.840   3.015  0.1484 -0.2556  0.9577
 1828SOL    HW2 5620   3.730   3.719   2.987 -0.2834 -0.7576  1.7488
 1829SOL     OW 5621   2.555   0.717   2.668  0.5962 -0.0751  0.6222
 1829SOL    HW1 5622   2.473   0.671   2.686  1.9714 -2.0209  2.3789
 1829SOL    HW2 5623   2.581   0.754   2.752  1.3740  0.7874  0.0190
 1830SOL     OW 5624   1.372   3.821   0.595  0.1158  0.2128 -0.0907
 1830SOL    HW1 5625   1.289   3.854   0.630 -1.2953 -3.2813  0.3311
 1830SOL    HW2 5626   1.349   3.787   0.508  1.3421  0.1535 -0.3997
 1831SOL     OW 5627   2.852   1.254   0.203 -0.3898  0.0272 -0.5166
 1831SOL    HW1 5628   2.927   1.311   0.189 -1.2273  0.7188 -2.6483
 1831SOL    HW2 5629   2.798   1.300   0.267 -0.0207  0.5754 -0.5956
 1832SOL     OW 5630   4.011   2.960   1.927  0.0529  0.1108 -0.1990
 1832SOL    HW1 5631   4.064   2.920   1.996 -0.3302 -1.2229 -0.6548
 1832SOL    HW2 5632   3.985   3.045   1.963  2.9341  1.0812 -0.1763
 1833SOL     OW 5633   3.858   0.319   3.053 -0.4093  0.1645 -0.2007
 1833SOL    HW1 5634   3.777   0.302   3.100 -0.4524 -2.1419 -0.9752
 1833SOL    HW2 5635   3.839   0.293   2.963  0.6466  1.3778 -0.8142
 1834SOL     OW 5636   2.891   2.787   3.260 -0.2780  0.5605 -0.1879
 1834SOL    HW1 5637   2.799   2.813   3.264 -0.4559 -0.1745  1.6756
 1834SOL    HW2 5638   2.889   2.692   3.270  0.6802  0.5356 -0.1249
 1835SOL     OW 5639   2.168   3.164   3.433  0.0059 -0.2317  0.0759
 1835SOL    HW1 5640   2.259   3.167   3.463  0.2657 -0.6043 -0.6412
 1835SOL    HW2 5641   2.116   3.173   3.512  0.6396 -3.4473  0.9976
 1836SOL     OW 5642   3.480   3.541   4.356 -0.5113 -0.7793  0.1553
 1836SOL    HW1 5643   3.558   3.514   4.309 -0.0178 -0.2153  0.6260
 1836SOL    HW2 5644   3.513   3.580   4.437 -1.1404  1.4742 -0.5871
 1837SOL     OW 5645   3.890   1.040   4.714  0.4008  0.1462  0.3095
 1837SOL    HW1 5646   3.919   0.972   4.654  2.3782  0.0677  1.2447
 1837SOL    HW2 5647   3.861   0.992   4.792  1.1112  0.3184  0.6932
 1838SOL     OW 5648   2.390   2.503   2.737 -0.2419 -0.1327  0.7067
 1838SOL    HW1 5649   2.338   2.423   2.739  1.0145 -1.0183 -0.1485
 1838SOL    HW2 5650   2.460   2.484   2.674  0.5624  1.3449  1.1106
 1839SOL     OW 5651   4.738   4.104   2.341 -0.1484  0.4277 -0.6381
 1839SOL    HW1 5652   4.809   4.151   2.384 -1.5453  0.0657  2.2640
 1839SOL    HW2 5653   4.660   4.159   2.355 -1.3940 -1.5808  0.9221
 1840SOL     OW 5654   1.870   4.532   1.179 -0.2921  0.1454 -0.2346
 1840SOL    HW1 5655   1.881   4.441   1.209 -0.1490 -0.5397 -2.2223
 1840SOL    HW2 5656   1.943   4.579   1.220  0.8228 -1.0774 -0.7194
 1841SOL     OW 5657   0.260   4.288   2.957 -0.0085  0.0392 -0.5579
 1841SOL    HW1 5658   0.178   4.300   2.908  0.0195  1.7695 -0.2447
 1841SOL    HW2 5659   0.239   4.317   3.046  1.6002  3.3996 -1.0884
 1842SOL     OW 5660   0.652   3.845   4.787 -0.0345  0.2163 -0.3998
 1842SOL    HW1 5661   0.665   3.787   4.712 -1.3991 -2.3393  1.2318
 1842SOL    HW2 5662   0.728   3.829   4.844 -0.9437 -0.8439  0.5539
 1843SOL     OW 5663   4.097   1.407   2.770 -0.1781  0.1689 -0.4137
 1843SOL    HW1 5664   4.088   1.416   2.675  0.8235 -0.3284 -0.5696
 1843SOL    HW2 5665   4.109   1.313   2.785  2.8113  0.4861 -0.1454
 1844SOL     OW 5666   3.965   3.203   0.423  0.7973  0.0503 -0.1093
 1844SOL    HW1 5667   3.993   3.115   0.447  0.7859 -0.1531 -0.8224
 1844SOL    HW2 5668   3.873   3.193   0.400  0.3821  0.5318  1.2536
 1845SOL     OW 5669   1.098   0.251   4.526 -0.3294 -0.1957 -0.3045
 1845SOL    HW1 5670   1.168   0.190   4.546 -1.6047 -1.1940  1.4270
 1845SOL    HW2 5671   1.059   0.218   4.445  1.4909  0.7285 -1.6442
 1846SOL     OW 5672   1.924   4.171   3.360 -0.3086  0.3396  1.3261
 1846SOL    HW1 5673   1.953   4.262   3.367  0.0806  0.2638  0.7348
 1846SOL    HW2 5674   1.832   4.178   3.336  0.2720  0.6137 -1.0629
 1847SOL     OW 5675   1.601   1.150   4.598 -0.0927 -0.1793 -0.0840
 1847SOL    HW1 5676   1.541   1.089   4.641 -0.6504 -0.8654 -1.7844
 1847SOL    HW2 5677   1.637   1.101   4.524  1.0823  0.8690 -0.2464
 1848SOL     OW 5678   3.653   3.177   2.026  0.2108  0.1493 -0.1082
 1848SOL    HW1 5679   3.585   3.111   2.034  0.8823 -0.3716  1.9385
 1848SOL    HW2 5680   3.611   3.259   2.051  0.2172 -0.0971  0.7245
 1849SOL     OW 5681   4.843   3.496   2.563  0.1816 -0.3316  0.0858
 1849SOL    HW1 5682   4.848   3.400   2.561 -0.0302 -0.3764  1.0645
 1849SOL    HW2 5683   4.750   3.515   2.553 -0.0937 -0.3443  2.1704
 1850SOL     OW 5684   1.266   2.801   0.661  0.1423 -0.1516  0.0967
 1850SOL    HW1 5685   1.313   2.845   0.589  0.3844 -0.6227 -0.0370
 1850SOL    HW2 5686   1.327   2.734   0.692 -0.0350 -0.0785  0.6219
 1851SOL     OW 5687   1.078   2.388   0.766  0.0287 -0.3280  0.3389
 1851SOL    HW1 5688   1.094   2.338   0.686  2.0104 -1.4010  1.3391
 1851SOL    HW2 5689   1.157   2.375   0.819  0.2126  3.0767  1.0981
 1852SOL     OW 5690   1.926   1.895   2.308  0.1715  0.0613  0.7691
 1852SOL    HW1 5691   1.910   1.944   2.227 -0.8965 -0.3497  0.7106
 1852SOL    HW2 5692   1.992   1.946   2.355 -1.6239  2.1731  1.1864
 1853SOL     OW 5693   4.334   3.421   0.919  0.1860  0.1468 -0.3912
 1853SOL    HW1 5694   4.266   3.366   0.958  0.7004 -0.2974 -0.1071
 1853SOL    HW2 5695   4.343   3.388   0.829  0.8811 -0.6208 -0.0566
 1854SOL     OW 5696   0.149   3.947   3.921 -0.8662 -0.3308 -0.1144
 1854SOL    HW1 5697   0.208   3.872   3.914  1.1237  1.0573  0.9910
 1854SOL    HW2 5698   0.126   3.952   4.013 -2.8803 -0.8880 -0.5254
 1855SOL     OW 5699  -0.008   2.790   3.068 -0.0701 -0.2893  0.2563
 1855SOL    HW1 5700   0.082   2.819   3.080 -0.3145 -0.0528  1.7815
 1855SOL    HW2 5701  -0.005   2.695   3.081 -0.0654 -0.2600  0.4697
 1856SOL     OW 5702   0.011   3.818   3.496 -0.2490  0.3675 -0.3551
 1856SOL    HW1 5703   0.087   3.876   3.493 -0.7354  0.9802 -0.8729
 1856SOL    HW2 5704   0.043   3.734   3.462  0.6500  0.0853  1.0895
 1857SOL     OW 5705   2.667   2.578   4.443  0.0286 -0.4366  0.5417
 1857SOL    HW1 5706   2.603   2.648   4.454  0.3867 -0.0091 -0.0370
 1857SOL    HW2 5707   2.620   2.509   4.396 -0.3464 -0.6278  1.1779
 1858SOL     OW 5708   0.120   4.876   2.000  0.4197 -0.4490 -0.1791
 1858SOL    HW1 5709   0.051   4.850   1.939 -1.3733 -1.4842  2.1744
 1858SOL    HW2 5710   0.176   4.799   2.009  3.3324  0.9373 -3.6025
 1859SOL     OW 5711   4.405   2.233   1.561 -0.1697 -0.0254  0.1227
 1859SOL    HW1 5712   4.349   2.157   1.578  1.3045 -1.8816 -2.5634
 1859SOL    HW2 5713   4.486   2.213   1.608 -0.6125  1.1753  1.4728
 1860SOL     OW 5714   4.322   2.147   1.930 -0.1669 -0.9600  0.2170
 1860SOL    HW1 5715   4.413   2.119   1.937  0.5705  0.5099 -2.2791
 1860SOL    HW2 5716   4.288   2.100   1.853 -1.3020 -0.9083  0.6626
 1861SOL     OW 5717   3.538   0.775   1.216 -0.0374  0.6254 -0.2296
 1861SOL    HW1 5718   3.563   0.711   1.149  1.5852 -0.2228  1.1319
 1861SOL    HW2 5719   3.571   0.739   1.298  1.7149  3.5685  0.4964
 1862SOL     OW 5720   4.527   3.954   2.607 -0.2628 -0.5382 -0.6432
 1862SOL    HW1 5721   4.599   4.016   2.612  0.8207 -1.7593 -0.5276
 1862SOL    HW2 5722   4.487   3.970   2.521  0.2061  0.0881 -0.7497
 1863SOL     OW 5723   3.751   2.644   3.989  0.0352  0.4598  0.2165
 1863SOL    HW1 5724   3.798   2.673   4.067  0.4901  1.0722 -0.2784
 1863SOL    HW2 5725   3.674   2.598   4.023  0.0119  1.0836  1.0174
 1864SOL     OW 5726   1.306   1.628   3.755  0.2671 -0.1589  0.5028
 1864SOL    HW1 5727   1.313   1.676   3.673 -0.2623 -0.8703  0.0242
 1864SOL    HW2 5728   1.274   1.692   3.818 -1.9788 -0.1925 -0.4802
 1865SOL     OW 5729   4.628   4.278   0.680  0.2971  0.1694  0.0490
 1865SOL    HW1 5730   4.630   4.190   0.644 -1.1624  0.2017 -0.1832
 1865SOL    HW2 5731   4.634   4.266   0.775  1.6301 -0.0643 -0.0455
 1866SOL     OW 5732   3.715   2.147   1.319  0.3887 -0.0864  0.1417
 1866SOL    HW1 5733   3.679   2.104   1.397 -1.6843 -1.3924 -1.4118
 1866SOL    HW2 5734   3.664   2.227   1.309 -1.6699 -1.4825 -1.5409
 1867SOL     OW 5735   1.375   5.026   4.071  0.8607 -0.5290 -0.3749
 1867SOL    HW1 5736   1.317   4.953   4.051  0.7730 -0.3982 -0.6087
 1867SOL    HW2 5737   1.451   5.013   4.013  1.5793 -1.3080  0.7141
 1868SOL     OW 5738   1.709   1.518   4.742 -0.2959 -0.2189 -0.2164
 1868SOL    HW1 5739   1.645   1.539   4.809 -0.6927 -0.0319 -0.6436
 1868SOL    HW2 5740   1.657   1.480   4.671 -0.2263  1.7602 -1.4020
 1869SOL     OW 5741   3.019   1.684   2.193  0.7060  0.3813 -0.5773
 1869SOL    HW1 5742   3.036   1.634   2.113 -0.5547  1.1720 -1.3727
 1869SOL    HW2 5743   2.958   1.753   2.166 -1.0060 -0.2777  1.3630
 1870SOL     OW 5744   3.335   3.194   1.359 -0.6286  0.3393  0.3997
 1870SOL    HW1 5745   3.303   3.233   1.278 -2.1526 -0.4285  0.5773
 1870SOL    HW2 5746   3.279   3.232   1.427 -1.1929 -1.0374  0.7390
 1871SOL     OW 5747   4.619   0.488   2.452 -0.2241 -0.0878  0.0428
 1871SOL    HW1 5748   4.575   0.532   2.525  0.0356  0.5953 -0.2085
 1871SOL    HW2 5749   4.615   0.551   2.381  1.3839  0.0807  0.0795
 1872SOL     OW 5750   3.280   0.796   3.979 -0.2424  0.6781  0.1782
 1872SOL    HW1 5751   3.196   0.790   3.933 -2.4298  1.2100  3.7419
 1872SOL    HW2 5752   3.266   0.863   4.046  1.7130 -1.8273  3.3550
 1873SOL     OW 5753   1.227   3.418   3.967  0.3498  0.1173  0.2525
 1873SOL    HW1 5754   1.260   3.470   3.894  0.3598  0.2063  0.3200
 1873SOL    HW2 5755   1.132   3.419   3.956  0.3388  0.3035  0.3568
 1874SOL     OW 5756   0.941   3.790   3.142  0.1683  0.7916 -0.2940
 1874SOL    HW1 5757   0.863   3.777   3.088 -0.0586  1.2251 -0.0760
 1874SOL    HW2 5758   0.987   3.706   3.139  1.0281  1.2607 -2.5514
 1875SOL     OW 5759   4.130   2.550   0.543  0.1923  0.0817  0.0489
 1875SOL    HW1 5760   4.053   2.547   0.600  0.9051 -0.3402  1.0103
 1875SOL    HW2 5761   4.094   2.544   0.454 -0.9838  1.3676  0.3997
 1876SOL     OW 5762   4.910   4.672   2.567 -0.1898  0.1639 -0.0261
 1876SOL    HW1 5763   4.892   4.616   2.643  0.2142  1.4060  1.0291
 1876SOL    HW2 5764   4.834   4.730   2.561  0.0340  0.4420 -0.2155
 1877SOL     OW 5765   4.410   0.764   3.449 -0.1963 -0.3090  0.4695
 1877SOL    HW1 5766   4.462   0.688   3.475  1.2372  0.7439  0.7904
 1877SOL    HW2 5767   4.441   0.785   3.361 -1.7857 -1.0878 -0.3029
 1878SOL     OW 5768   4.574   4.751   3.653  0.1653  0.2104 -0.2312
 1878SOL    HW1 5769   4.660   4.789   3.637 -1.0855  3.6429  0.2473
 1878SOL    HW2 5770   4.515   4.798   3.593 -1.7704  0.0413  1.4107
 1879SOL     OW 5771   0.945   3.893   4.410  0.2178 -0.5802 -0.0436
 1879SOL    HW1 5772   0.879   3.911   4.476 -0.8301 -1.1339 -0.9086
 1879SOL    HW2 5773   0.947   3.972   4.356 -2.5173 -1.8930 -2.2821
 1880SOL     OW 5774   3.767   2.116   2.158 -0.1216  0.7133 -0.2366
 1880SOL    HW1 5775   3.823   2.082   2.089 -3.7314 -1.4010 -2.4237
 1880SOL    HW2 5776   3.746   2.041   2.213 -1.8760  1.0549 -0.3525
 1881SOL     OW 5777   1.623   1.561   0.777 -0.4001  0.4860 -0.4226
 1881SOL    HW1 5778   1.558   1.530   0.714  0.1877  1.0455 -1.3350
 1881SOL    HW2 5779   1.574   1.621   0.834 -0.7701  0.6402 -0.8902
 1882SOL     OW 5780   4.986   3.779   1.192  0.4141 -0.3339  0.1969
 1882SOL    HW1 5781   5.024   3.851   1.241 -0.3456  0.2647 -0.0770
 1882SOL    HW2 5782   4.931   3.821   1.126  1.1600 -1.1239 -0.9640
 1883SOL     OW 5783   3.832   1.685   1.449 -0.0951 -0.3795 -0.0814
 1883SOL    HW1 5784   3.894   1.697   1.377  2.0906 -0.8081  1.5896
 1883SOL    HW2 5785   3.836   1.768   1.497 -0.3911 -0.6127  0.3481
 1884SOL     OW 5786   2.637   3.536   0.322 -0.2002  0.0504 -0.4362
 1884SOL    HW1 5787   2.628   3.469   0.390 -0.0369 -0.3676 -0.8273
 1884SOL    HW2 5788   2.548   3.568   0.309 -0.2409  0.1018 -0.0614
 1885SOL     OW 5789   2.872   1.115   2.094  0.0203 -0.0805  0.1365
 1885SOL    HW1 5790   2.924   1.055   2.147 -1.1966 -0.3082  1.1192
 1885SOL    HW2 5791   2.810   1.154   2.155 -1.0455  0.0854 -1.0051
 1886SOL     OW 5792   2.682   2.682   2.871 -0.6173  0.1160 -0.0715
 1886SOL    HW1 5793   2.616   2.634   2.921 -0.1134 -1.0354 -0.4745
 1886SOL    HW2 5794   2.749   2.616   2.850  1.2751  1.4513  1.3185
 1887SOL     OW 5795   0.209   1.003   2.022  0.5548  0.4981  0.0174
 1887SOL    HW1 5796   0.227   0.992   2.115 -3.0217 -0.2860  0.7606
 1887SOL    HW2 5797   0.260   0.934   1.979  0.6999 -0.4449  1.6326
 1888SOL     OW 5798   3.957   3.672   2.769 -0.6000  0.3659 -0.5473
 1888SOL    HW1 5799   4.045   3.652   2.803 -0.7532 -2.8752 -1.7631
 1888SOL    HW2 5800   3.900   3.663   2.846 -0.1268  0.3563 -0.1875
 1889SOL     OW 5801   4.535   3.846   2.854  0.0210  0.1325 -0.5341
 1889SOL    HW1 5802   4.523   3.751   2.858  0.7175  0.0077 -1.1941
 1889SOL    HW2 5803   4.541   3.866   2.761 -1.9945  1.0908 -0.5194
 1890SOL     OW 5804   1.581   2.931   4.213 -0.5577  0.0483 -0.2871
 1890SOL    HW1 5805   1.599   3.014   4.258 -0.4041 -0.8838  1.4438
 1890SOL    HW2 5806   1.649   2.926   4.146  0.2121  0.7423  0.4090
 1891SOL     OW 5807   0.596   1.057   1.540  0.1912  0.1984  0.0024
 1891SOL    HW1 5808   0.644   1.139   1.549 -1.0236  0.8388  1.0048
 1891SOL    HW2 5809   0.555   1.043   1.626  0.1740 -1.3341 -0.2252
 1892SOL     OW 5810   0.845   0.480   1.618 -0.3213  0.1263 -0.0666
 1892SOL    HW1 5811   0.872   0.518   1.534 -1.4480  0.8190 -0.1503
 1892SOL    HW2 5812   0.782   0.412   1.594  0.4626 -0.6933  0.1634
 1893SOL     OW 5813   3.448   4.475   2.838  0.1935  0.4059 -0.4239
 1893SOL    HW1 5814   3.457   4.480   2.933  1.6272 -0.5474 -0.4927
 1893SOL    HW2 5815   3.475   4.561   2.807 -2.8723  1.7078  0.1373
 1894SOL     OW 5816   2.687   2.669   0.369  0.5292 -0.1909  0.5173
 1894SOL    HW1 5817   2.758   2.708   0.421  0.0126  0.0435  1.0591
 1894SOL    HW2 5818   2.732   2.629   0.294  0.9774  3.7039 -1.5798
 1895SOL     OW 5819   1.949   4.664   2.228  0.0478  0.2835  0.0774
 1895SOL    HW1 5820   1.915   4.725   2.164  0.7058  0.0252 -0.5337
 1895SOL    HW2 5821   1.939   4.708   2.312 -2.6572 -0.1449  0.0766
 1896SOL     OW 5822   1.235   4.018   0.331  0.1744 -0.9716  0.3981
 1896SOL    HW1 5823   1.194   4.033   0.416 -1.3638  0.3378 -0.5193
 1896SOL    HW2 5824   1.246   3.923   0.327 -1.1665 -1.2097  1.4220
 1897SOL     OW 5825   1.307   0.082   4.561  0.6923 -0.5484 -0.4026
 1897SOL    HW1 5826   1.345   0.089   4.648 -0.7539 -0.0354  0.2176
 1897SOL    HW2 5827   1.291  -0.012   4.549  2.2117 -0.8032 -0.7461
 1898SOL     OW 5828   3.529   0.696   0.636  0.5329  0.2332 -0.7299
 1898SOL    HW1 5829   3.511   0.743   0.718 -0.0445  1.0275 -1.2946
 1898SOL    HW2 5830   3.453   0.641   0.622  0.2974  0.6465 -1.1008
 1899SOL     OW 5831   1.785   2.764   0.491  0.2265 -0.2502 -0.3985
 1899SOL    HW1 5832   1.793   2.733   0.401 -1.0039 -0.0766 -0.5897
 1899SOL    HW2 5833   1.704   2.816   0.491 -0.6437 -1.5138  1.1418
 1900SOL     OW 5834   2.890   4.754   0.342  0.1477 -0.0476 -0.2484
 1900SOL    HW1 5835   2.895   4.684   0.277 -0.6813 -2.2391  1.8801
 1900SOL    HW2 5836   2.916   4.712   0.424 -1.8527  1.7248  1.4061
 1901SOL     OW 5837   1.796   1.529   0.208  0.0961 -0.1285 -0.5404
 1901SOL    HW1 5838   1.764   1.519   0.118  1.2001 -2.2290 -0.7707
 1901SOL    HW2 5839   1.890   1.545   0.198  0.2756 -0.6886  0.2406
 1902SOL     OW 5840   3.662   1.029   2.729 -0.1833  0.0792  0.1091
 1902SOL    HW1 5841   3.727   1.098   2.722 -1.1628  1.0172 -0.0072
 1902SOL    HW2 5842   3.621   1.043   2.814 -1.0153  0.2302 -0.3040
 1903SOL     OW 5843   3.166   2.840   0.661 -0.2316  0.4722 -0.5026
 1903SOL    HW1 5844   3.200   2.768   0.607 -0.7755 -0.1205 -0.0587
 1903SOL    HW2 5845   3.162   2.915   0.601 -1.8465 -0.4361 -1.5879
 1904SOL     OW 5846   1.775   1.763   3.296 -0.0320 -0.0389  0.0813
 1904SOL    HW1 5847   1.840   1.823   3.331  0.6285 -0.0014 -1.1368
 1904SOL    HW2 5848   1.797   1.755   3.203 -0.8096 -1.2532 -0.0322
 1905SOL     OW 5849   0.530   4.939   1.966 -0.2762  0.3456  0.3990
 1905SOL    HW1 5850   0.464   4.906   2.027 -0.5518 -0.6908 -0.4295
 1905SOL    HW2 5851   0.586   4.863   1.949 -1.1851  0.1188 -1.9283
 1906SOL     OW 5852   0.992   0.976   0.696  0.1347 -0.0914 -0.0195
 1906SOL    HW1 5853   1.086   0.968   0.680  0.0882  3.5332 -3.8410
 1906SOL    HW2 5854   0.951   0.941   0.617 -1.7461 -0.5867  1.0989
 1907SOL     OW 5855   0.721   4.931   3.288 -0.3168  0.8267 -0.3825
 1907SOL    HW1 5856   0.808   4.926   3.247  0.7057  2.8529  1.3724
 1907SOL    HW2 5857   0.666   4.875   3.232  2.1977 -1.0421 -1.2057
 1908SOL     OW 5858   0.464   0.457   3.879  0.2440 -0.1599 -0.0653
 1908SOL    HW1 5859   0.433   0.413   3.800 -0.6832 -0.9311  0.6914
 1908SOL    HW2 5860   0.555   0.429   3.889  0.3840 -0.0086 -0.8767
 1909SOL     OW 5861   0.665   0.282   2.745 -0.0350  0.8867  0.0658
 1909SOL    HW1 5862   0.663   0.371   2.711 -0.1939  1.0825  0.5752
 1909SOL    HW2 5863   0.747   0.278   2.795  0.4711  0.4324 -0.7793
 1910SOL     OW 5864   2.190   2.586   4.901  0.3293 -0.4032  0.2251
 1910SOL    HW1 5865   2.274   2.609   4.942 -0.1691 -1.0537  1.6337
 1910SOL    HW2 5866   2.157   2.670   4.868  1.8116 -0.2213 -0.9321
 1911SOL     OW 5867   2.866   3.116   0.243 -0.1050  0.1451 -0.0976
 1911SOL    HW1 5868   2.817   3.169   0.181  2.5347 -0.3628 -2.8723
 1911SOL    HW2 5869   2.825   3.029   0.239  1.8096 -0.7856 -3.7651
 1912SOL     OW 5870   2.625   0.771   4.866 -0.2389 -0.1354 -0.1641
 1912SOL    HW1 5871   2.681   0.774   4.789 -0.0024  0.5723  0.0331
 1912SOL    HW2 5872   2.591   0.681   4.867  1.2990 -0.7431  0.0170
 1913SOL     OW 5873   1.946   2.893   2.009  0.3196 -0.3820 -0.6405
 1913SOL    HW1 5874   1.963   2.927   2.097 -0.4023 -0.6910 -0.3629
 1913SOL    HW2 5875   1.918   2.969   1.958 -2.8677 -0.6815  0.3925
 1914SOL     OW 5876   2.189   3.885   1.785  0.1624  0.5900  0.4298
 1914SOL    HW1 5877   2.202   3.917   1.696  1.6257  0.6866  0.6437
 1914SOL    HW2 5878   2.125   3.944   1.824  0.0318  0.9610 -0.3445
 1915SOL     OW 5879   0.619   2.919   3.719  0.6590  0.0745 -0.1039
 1915SOL    HW1 5880   0.541   2.869   3.740 -1.2371  2.5111 -0.7988
 1915SOL    HW2 5881   0.691   2.872   3.762 -1.3396 -1.5630  1.6688
 1916SOL     OW 5882   0.942   4.389   0.833  0.3914  0.4005  0.3090
 1916SOL    HW1 5883   0.864   4.443   0.847  0.0829  0.4378 -1.4374
 1916SOL    HW2 5884   1.015   4.446   0.857 -0.0040  1.1429 -0.2050
 1917SOL     OW 5885   1.305   2.187   4.353 -0.6761  0.6964  0.4803
 1917SOL    HW1 5886   1.399   2.173   4.368 -0.1229  1.2257 -2.0679
 1917SOL    HW2 5887   1.262   2.132   4.418  1.3934 -3.2357 -1.1245
 1918SOL     OW 5888   1.452   3.366   3.558  0.2808  0.1062  0.2176
 1918SOL    HW1 5889   1.413   3.434   3.613  1.8203  2.2445 -1.1923
 1918SOL    HW2 5890   1.421   3.387   3.469 -1.7957 -2.9943  0.0422
 1919SOL     OW 5891   0.652   2.044   4.495 -0.2943  0.7184 -0.0006
 1919SOL    HW1 5892   0.670   2.097   4.417 -0.1194  1.1086  0.3077
 1919SOL    HW2 5893   0.685   1.957   4.472 -0.1608  0.8532 -0.3315
 1920SOL     OW 5894   2.856   0.066   0.603  0.1771  0.6744  0.2622
 1920SOL    HW1 5895   2.797   0.036   0.672  0.2653 -2.5097 -0.8612
 1920SOL    HW2 5896   2.802   0.067   0.524  0.8660  0.7940 -0.2176
 1921SOL     OW 5897   0.808   1.684   1.900  0.1050 -0.1387  0.2324
 1921SOL    HW1 5898   0.738   1.652   1.843  1.3088  0.5850 -1.7629
 1921SOL    HW2 5899   0.775   1.767   1.933 -0.1700 -0.0098 -0.3480
 1922SOL     OW 5900   1.208   2.321   2.851  0.2886  0.7897 -0.1348
 1922SOL    HW1 5901   1.173   2.410   2.840  0.6232  1.0844  1.0562
 1922SOL    HW2 5902   1.148   2.265   2.802 -1.6276  1.3256  1.5165
 1923SOL     OW 5903   4.867   0.354   4.510  0.1309  0.5941  0.0739
 1923SOL    HW1 5904   4.923   0.314   4.443 -2.1596 -1.5175 -0.7725
 1923SOL    HW2 5905   4.836   0.435   4.470 -0.4068 -0.1417 -1.0750
 1924SOL     OW 5906   1.130   1.976   2.440  0.3588 -0.2728 -0.4079
 1924SOL    HW1 5907   1.212   1.996   2.485 -0.8885  2.8140  0.7475
 1924SOL    HW2 5908   1.107   2.057   2.394 -2.1505 -0.9496 -0.4987
 1925SOL     OW 5909   0.885   4.093   1.896  0.3764 -0.2902  0.0319
 1925SOL    HW1 5910   0.968   4.045   1.907 -0.3485 -1.4481  0.6797
 1925SOL    HW2 5911   0.847   4.094   1.984 -0.6638 -0.4586 -0.4086
 1926SOL     OW 5912   3.810   4.090   1.937  0.4228 -0.5439  0.5919
 1926SOL    HW1 5913   3.719   4.084   1.909  0.6135  1.1600 -0.5870
 1926SOL    HW2 5914   3.830   4.004   1.974 -1.4438 -1.1747  0.2353
 1927SOL     OW 5915   0.985   1.940   2.669  0.4610 -0.2411 -0.7798
 1927SOL    HW1 5916   0.986   1.850   2.704 -0.4924 -0.3550 -1.0245
 1927SOL    HW2 5917   1.028   1.932   2.584  1.4700 -0.2284 -0.2979
 1928SOL     OW 5918   0.577   1.651   2.821  0.3542  0.0850  0.0731
 1928SOL    HW1 5919   0.643   1.644   2.890 -1.3737 -0.8721  1.6906
 1928SOL    HW2 5920   0.628   1.644   2.740  2.3625  0.5633  1.2132
 1929SOL     OW 5921   4.799   3.398   0.691  0.2393 -0.3061 -0.3286
 1929SOL    HW1 5922   4.845   3.319   0.662 -1.0083 -0.8899 -0.8040
 1929SOL    HW2 5923   4.709   3.385   0.660 -0.3973  0.5039  1.1182
 1930SOL     OW 5924   4.708   2.841   0.482  0.2390  0.2894  0.0714
 1930SOL    HW1 5925   4.688   2.749   0.468  1.6544  0.0469 -0.4225
 1930SOL    HW2 5926   4.631   2.875   0.529 -1.5522 -0.4800 -2.1446
 1931SOL     OW 5927   0.071   2.532   4.825 -0.3372 -0.7264  0.0798
 1931SOL    HW1 5928   0.037   2.612   4.866 -1.6628 -1.0667 -0.2840
 1931SOL    HW2 5929   0.010   2.515   4.753  1.1970 -0.8650 -1.2262
 1932SOL     OW 5930   0.716   4.738   2.459  0.0178 -0.2777 -0.2808
 1932SOL    HW1 5931   0.710   4.787   2.377 -0.4950  1.4478  0.7537
 1932SOL    HW2 5932   0.810   4.729   2.475  0.1770  2.1742  0.5144
 1933SOL     OW 5933   1.643   2.388   3.745 -0.3465  0.9699 -0.1408
 1933SOL    HW1 5934   1.667   2.299   3.771  3.1284  1.7333 -0.2436
 1933SOL    HW2 5935   1.609   2.378   3.656  1.5274 -0.1390 -0.7915
 1934SOL     OW 5936   2.779   2.078   4.080  0.1722  0.2864 -0.2808
 1934SOL    HW1 5937   2.778   2.166   4.044 -1.1294  0.9128  1.1895
 1934SOL    HW2 5938   2.868   2.066   4.113  0.9056  0.3072 -2.1111
 1935SOL     OW 5939   1.714   0.638   4.502  0.2562  0.3451  0.4937
 1935SOL    HW1 5940   1.740   0.633   4.410  0.3257  0.9027  0.4753
 1935SOL    HW2 5941   1.653   0.712   4.505 -0.0424  0.0874  0.8308
 1936SOL     OW 5942   1.619   0.570   2.571 -0.1752 -0.5437 -0.5502
 1936SOL    HW1 5943   1.588   0.623   2.644  0.9578 -0.1967 -0.3020
 1936SOL    HW2 5944   1.558   0.589   2.500 -0.4121  0.2662 -0.1445
 1937SOL     OW 5945   0.510   2.831   1.296  0.0974 -0.1870  0.2214
 1937SOL    HW1 5946   0.545   2.919   1.283  1.8822 -0.6193  1.5815
 1937SOL    HW2 5947   0.520   2.815   1.390 -2.3770 -1.0038  0.4100
 1938SOL     OW 5948   2.548   3.745   1.754  0.0783  0.1544  0.3089
 1938SOL    HW1 5949   2.536   3.662   1.708  3.3945  0.1135 -0.7774
 1938SOL    HW2 5950   2.523   3.812   1.689  1.1098  0.0272 -0.2407
 1939SOL     OW 5951   1.000   4.755   3.833 -0.0903 -0.0889  0.5640
 1939SOL    HW1 5952   0.984   4.661   3.826 -0.5674 -0.0179  0.6060
 1939SOL    HW2 5953   0.921   4.789   3.875 -0.2588  0.4372 -0.1525
 1940SOL     OW 5954   1.710   3.642   1.944  0.1913  0.2296 -0.2090
 1940SOL    HW1 5955   1.716   3.726   1.990 -2.0463 -0.3565  1.2945
 1940SOL    HW2 5956   1.759   3.581   1.998  2.2435  0.5895 -1.5604
 1941SOL     OW 5957   1.746   1.274   3.570  0.1480  0.6357 -0.4751
 1941SOL    HW1 5958   1.798   1.195   3.554 -0.7605 -0.4848  1.6225
 1941SOL    HW2 5959   1.726   1.308   3.483  1.5245 -0.7964 -1.4076
 1942SOL     OW 5960   1.770   4.907   0.159 -0.1336 -0.1342 -0.5229
 1942SOL    HW1 5961   1.752   4.866   0.243  0.9551  0.8504  0.2283
 1942SOL    HW2 5962   1.706   4.978   0.153  1.8620  1.9854  1.1389
 1943SOL     OW 5963   0.686   1.941   3.995 -0.3823 -0.0029 -0.1646
 1943SOL    HW1 5964   0.677   1.859   4.043 -0.5128  0.3486  0.4138
 1943SOL    HW2 5965   0.688   1.914   3.903 -0.7719 -0.6268  0.0015
 1944SOL     OW 5966   4.071   0.345   0.303 -0.6620  0.4374  0.7796
 1944SOL    HW1 5967   4.145   0.387   0.347  0.8289  2.4723 -3.1423
 1944SOL    HW2 5968   3.994   0.396   0.331  0.1314  1.3789  1.3111
 1945SOL     OW 5969   1.532   3.388   1.889 -0.4402  0.5578  0.4966
 1945SOL    HW1 5970   1.602   3.387   1.953  0.7226 -1.3572 -0.7125
 1945SOL    HW2 5971   1.457   3.349   1.934  0.2418 -0.3937  0.8242
 1946SOL     OW 5972   0.645   1.798   1.423  0.1329 -0.5897  0.5763
 1946SOL    HW1 5973   0.606   1.771   1.506 -0.2856 -1.2813  0.1632
 1946SOL    HW2 5974   0.649   1.894   1.429 -4.3407 -0.1283 -0.4620
 1947SOL     OW 5975   2.839   4.189   2.516  0.6028 -0.8107  0.3566
 1947SOL    HW1 5976   2.909   4.253   2.524  0.8076 -0.9769 -0.1312
 1947SOL    HW2 5977   2.882   4.104   2.523  0.4246 -0.9112  0.2553
 1948SOL     OW 5978   1.182   4.137   4.328  0.5409 -0.0995  0.2604
 1948SOL    HW1 5979   1.160   4.144   4.235  1.7546  1.6596  0.0627
 1948SOL    HW2 5980   1.128   4.203   4.371  0.7755 -0.1561  0.6508
 1949SOL     OW 5981   0.445   3.588   2.592 -0.2319  0.6077 -0.9083
 1949SOL    HW1 5982   0.390   3.517   2.560  1.6165 -1.0084 -0.6651
 1949SOL    HW2 5983   0.525   3.582   2.539  0.8047  1.1459  0.5351
 1950SOL     OW 5984   0.791   0.482   0.776 -0.1919 -0.3921  0.3779
 1950SOL    HW1 5985   0.777   0.552   0.840 -0.8930  0.0523 -0.2498
 1950SOL    HW2 5986   0.881   0.495   0.747  0.1969 -0.6990  1.3784
 1951SOL     OW 5987   3.156   4.603   4.267  0.0089  0.0809 -0.1822
 1951SOL    HW1 5988   3.159   4.516   4.308 -0.0678  0.7943  1.3898
 1951SOL    HW2 5989   3.215   4.657   4.320 -0.8838  1.2935 -0.3884
 1952SOL     OW 5990   3.295   1.762   1.872 -0.0967  0.3078  0.2209
 1952SOL    HW1 5991   3.313   1.751   1.965 -1.2401  4.3817  1.1376
 1952SOL    HW2 5992   3.204   1.792   1.868 -0.8556 -1.9532 -2.4942
 1953SOL     OW 5993   0.634   4.260   3.796  0.1207 -0.7134  0.2968
 1953SOL    HW1 5994   0.615   4.244   3.888  1.3423 -1.5427  0.4272
 1953SOL    HW2 5995   0.612   4.178   3.751 -0.0446 -0.4668 -0.0799
 1954SOL     OW 5996   3.279   4.225   0.619  0.1621  0.6035 -0.5387
 1954SOL    HW1 5997   3.270   4.267   0.534  1.7947  0.1226 -0.9930
 1954SOL    HW2 5998   3.219   4.152   0.617  0.6220  0.2400 -1.5340
 1955SOL     OW 5999   0.213   3.181   0.993  0.6706  0.2676 -0.4601
 1955SOL    HW1 6000   0.216   3.269   1.029  0.2966  0.2884 -0.4746
 1955SOL    HW2 6001   0.294   3.172   0.943 -0.6257  1.7159 -3.0257
 1956SOL     OW 6002   1.462   3.541   0.431  0.1430  0.0560  0.3135
 1956SOL    HW1 6003   1.429   3.453   0.453  0.1446  0.2431  1.1276
 1956SOL    HW2 6004   1.498   3.532   0.344  0.2640 -0.7924  0.4380
 1957SOL     OW 6005   1.209   4.325   2.361 -0.4496 -0.6067 -0.2601
 1957SOL    HW1 6006   1.147   4.332   2.434 -0.1778  0.0836 -0.0818
 1957SOL    HW2 6007   1.269   4.255   2.387  0.9488  1.0451  1.2079
 1958SOL     OW 6008   1.901   3.721   0.367  0.3896 -0.2494  0.0928
 1958SOL    HW1 6009   1.818   3.768   0.376  0.0771 -0.6178 -0.7005
 1958SOL    HW2 6010   1.968   3.789   0.366 -0.1750  0.3810 -2.7445
 1959SOL     OW 6011   1.991   4.618   1.883 -0.3371 -0.5688  0.6002
 1959SOL    HW1 6012   1.977   4.710   1.906 -2.4629 -0.2734 -1.5123
 1959SOL    HW2 6013   1.971   4.613   1.790  0.0296 -3.1482  0.5834
 1960SOL     OW 6014   2.051   0.940   0.576  0.1840  0.0199 -0.6485
 1960SOL    HW1 6015   2.023   0.848   0.569 -0.0885 -0.2340  2.5113
 1960SOL    HW2 6016   2.146   0.935   0.586 -0.0931 -0.3953  3.4372
 1961SOL     OW 6017   1.052   1.384   3.282 -0.4748 -0.1789  0.1527
 1961SOL    HW1 6018   0.957   1.385   3.295 -0.3921  1.3256  0.8981
 1961SOL    HW2 6019   1.087   1.353   3.366 -0.2899  0.2486  0.2387
 1962SOL     OW 6020   1.560   4.276   2.993 -0.2606 -0.5598 -0.0619
 1962SOL    HW1 6021   1.476   4.316   3.019  0.0501 -0.1804  0.3884
 1962SOL    HW2 6022   1.625   4.341   3.018  0.1500 -0.7281 -0.6850
 1963SOL     OW 6023   1.993   4.777   0.988  0.3050 -0.6944  0.2063
 1963SOL    HW1 6024   2.010   4.823   0.907 -1.2258 -1.4114 -0.5704
 1963SOL    HW2 6025   2.046   4.697   0.982 -0.6166 -1.2636 -0.6030
 1964SOL     OW 6026   0.850   0.496   4.321  0.3665 -0.3033  0.1636
 1964SOL    HW1 6027   0.787   0.492   4.249 -0.1865  1.9991  0.4419
 1964SOL    HW2 6028   0.909   0.422   4.306 -1.8604 -2.0659 -0.5862
 1965SOL     OW 6029   4.081   4.504   2.808  0.2133 -0.2817  0.0261
 1965SOL    HW1 6030   4.035   4.480   2.728  1.5343 -1.0454 -0.5263
 1965SOL    HW2 6031   4.051   4.593   2.827 -0.2821 -0.1717 -1.1844
 1966SOL     OW 6032   1.105   0.767   2.869  0.1709  0.0681  0.2767
 1966SOL    HW1 6033   1.025   0.791   2.822 -0.8933 -2.4703  0.6048
 1966SOL    HW2 6034   1.097   0.809   2.954  0.2015  1.4576 -0.3741
 1967SOL     OW 6035   1.579   2.377   0.819 -0.0996 -0.2430 -0.0339
 1967SOL    HW1 6036   1.543   2.317   0.754  1.6412  1.1833 -2.5267
 1967SOL    HW2 6037   1.655   2.332   0.855 -1.0368 -1.0184  1.0146
 1968SOL     OW 6038   4.196   4.385   4.969 -0.5393 -0.1859 -0.2790
 1968SOL    HW1 6039   4.104   4.369   4.949 -0.3764 -0.5754 -0.7304
 1968SOL    HW2 6040   4.237   4.399   4.884  0.0764 -1.3825 -0.1894
 1969SOL     OW 6041   2.465   2.037   0.176 -0.3773 -0.0170 -0.4546
 1969SOL    HW1 6042   2.411   2.080   0.109  0.2313  0.1318 -0.8554
 1969SOL    HW2 6043   2.538   2.097   0.189 -0.5802  0.0404  0.4789
 1970SOL     OW 6044   3.613   1.131   4.227  0.1219 -0.0201 -0.1055
 1970SOL    HW1 6045   3.708   1.117   4.221  0.4015  1.3418  0.6545
 1970SOL    HW2 6046   3.599   1.217   4.189 -0.8636 -0.3144 -0.4464
 1971SOL     OW 6047   3.998   2.628   1.137  0.1356 -0.0215  0.7553
 1971SOL    HW1 6048   3.920   2.671   1.173  1.3285  3.0882 -0.0630
 1971SOL    HW2 6049   4.071   2.681   1.168  1.5565 -0.0110 -2.2449
 1972SOL     OW 6050   2.153   2.933   1.494 -0.2808 -0.3260  0.4161
 1972SOL    HW1 6051   2.148   2.955   1.401 -0.0867 -1.1031  0.2205
 1972SOL    HW2 6052   2.240   2.963   1.521  0.3611 -1.6978 -0.0772
 1973SOL     OW 6053   1.722   0.971   1.242 -0.4995 -0.6959  0.4148
 1973SOL    HW1 6054   1.747   0.930   1.325 -1.0197 -1.0003  0.4242
 1973SOL    HW2 6055   1.805   1.000   1.204 -0.4756  3.0838  2.8383
 1974SOL     OW 6056   3.325   1.831   1.438  0.8170  0.4094  0.1017
 1974SOL    HW1 6057   3.310   1.737   1.446  0.1389  0.3620 -1.3820
 1974SOL    HW2 6058   3.361   1.857   1.522 -0.4734 -0.8980  1.1105
 1975SOL     OW 6059   1.087   0.635   4.416 -0.9526  0.4366 -0.4385
 1975SOL    HW1 6060   0.998   0.604   4.400 -1.0056  1.2176 -1.8256
 1975SOL    HW2 6061   1.139   0.595   4.347  0.0596 -1.0541  1.1204
 1976SOL     OW 6062   1.022   1.933   0.774 -0.1821  0.0445 -0.2074
 1976SOL    HW1 6063   1.069   2.002   0.728 -0.0196 -0.0042 -0.1167
 1976SOL    HW2 6064   1.087   1.863   0.785  0.2461  0.6626  1.4745
 1977SOL     OW 6065   4.792   3.270   1.557 -0.2297 -0.0837 -0.1596
 1977SOL    HW1 6066   4.808   3.243   1.648 -1.1052 -2.2299 -0.6037
 1977SOL    HW2 6067   4.847   3.213   1.504 -0.0179  0.8916 -1.0316
 1978SOL     OW 6068   0.066   3.966   4.410  0.4003 -0.0751 -0.0750
 1978SOL    HW1 6069   0.120   3.941   4.485 -0.2768  0.3863  0.5814
 1978SOL    HW2 6070  -0.016   3.917   4.423  0.9678 -1.4842 -1.5439
 1979SOL     OW 6071   0.129   1.759   0.091 -0.3793  0.1477 -0.0217
 1979SOL    HW1 6072   0.124   1.851   0.117  0.0840  0.0099  0.5750
 1979SOL    HW2 6073   0.147   1.762  -0.003  0.9671  0.6967  0.2310
 1980SOL     OW 6074   2.159   0.066   0.314 -0.1509 -0.1761 -0.0366
 1980SOL    HW1 6075   2.099   0.140   0.321 -0.6795 -0.6087  0.0978
 1980SOL    HW2 6076   2.154   0.040   0.222 -1.9619 -1.6560  0.4176
 1981SOL     OW 6077   4.187   3.121   3.138  0.7696 -0.3575 -0.4244
 1981SOL    HW1 6078   4.197   3.131   3.044  0.8266  0.5612 -0.3301
 1981SOL    HW2 6079   4.250   3.182   3.176 -0.6209  0.7706  0.1886
 1982SOL     OW 6080   1.364   3.978   4.458  0.6462  0.3928 -0.5577
 1982SOL    HW1 6081   1.330   4.054   4.410 -0.7378  0.2832  0.1823
 1982SOL    HW2 6082   1.384   4.013   4.545  0.3340  0.0010 -0.3228
 1983SOL     OW 6083   4.201   0.060   1.469 -0.3931  0.0540  0.0311
 1983SOL    HW1 6084   4.216  -0.028   1.433 -0.9334  0.2015 -0.5784
 1983SOL    HW2 6085   4.199   0.048   1.563  0.8950 -0.3795  0.0236
 1984SOL     OW 6086   3.802   0.026   2.105  0.1529 -0.2327  0.3761
 1984SOL    HW1 6087   3.732  -0.015   2.155 -0.1236  1.2778  1.2805
 1984SOL    HW2 6088   3.831   0.100   2.159  1.5726 -0.0625 -0.5580
 1985SOL     OW 6089   1.240   1.850   0.175 -0.5143 -0.5723  0.3529
 1985SOL    HW1 6090   1.252   1.856   0.080  1.9074 -0.3799  0.6142
 1985SOL    HW2 6091   1.149   1.876   0.189 -1.7679 -3.0641 -2.1234
 1986SOL     OW 6092   0.236   2.239   3.846  0.7366 -0.1377 -0.2853
 1986SOL    HW1 6093   0.206   2.255   3.756  1.1469  2.4387 -0.0310
 1986SOL    HW2 6094   0.322   2.281   3.851  0.1763  0.9120  1.6191
 1987SOL     OW 6095   4.912   1.934   3.749 -0.5906 -0.3660 -0.3486
 1987SOL    HW1 6096   4.971   1.860   3.731 -0.7974 -0.2810 -1.3930
 1987SOL    HW2 6097   4.846   1.897   3.808 -0.9629 -1.1542 -1.2334
 1988SOL     OW 6098   3.909   1.158   1.779 -0.2075 -0.0575 -0.4708
 1988SOL    HW1 6099   3.814   1.170   1.783 -0.0361  1.4999 -0.3425
 1988SOL    HW2 6100   3.928   1.143   1.686 -0.7086 -1.8509 -0.3077
 1989SOL     OW 6101   4.198   4.137   1.634  0.3290  0.0173 -0.2070
 1989SOL    HW1 6102   4.290   4.165   1.635  0.2304  0.4992 -2.0353
 1989SOL    HW2 6103   4.178   4.121   1.726  2.4068 -0.6478  0.1952
 1990SOL     OW 6104   3.182   0.308   0.828  0.3260 -0.0652  0.1912
 1990SOL    HW1 6105   3.176   0.230   0.883 -0.7006  1.1674  1.9016
 1990SOL    HW2 6106   3.106   0.303   0.770  0.8446 -0.8419 -0.4419
 1991SOL     OW 6107   0.270   3.989   4.678  0.3330 -0.0096 -0.4556
 1991SOL    HW1 6108   0.348   3.969   4.626  1.7648  3.4879  0.1027
 1991SOL    HW2 6109   0.272   4.084   4.689 -1.4192 -0.2644  3.6061
 1992SOL     OW 6110   3.958   2.358   0.040 -0.0112 -0.0417  0.1163
 1992SOL    HW1 6111   3.907   2.287   0.081 -0.3084 -0.3189 -0.7094
 1992SOL    HW2 6112   3.920   2.368  -0.047  0.3461  0.8163  0.0468
 1993SOL     OW 6113   4.671   2.644   4.546  0.1506  0.1196 -0.1688
 1993SOL    HW1 6114   4.581   2.669   4.567  0.2169  0.4191 -0.2470
 1993SOL    HW2 6115   4.675   2.646   4.451  0.2491  0.1370 -0.1645
 1994SOL     OW 6116   0.708   3.625   1.022 -1.0856  0.5358  0.7848
 1994SOL    HW1 6117   0.635   3.662   0.974 -1.2777  0.9780  1.4097
 1994SOL    HW2 6118   0.682   3.630   1.114 -0.0591  1.1824  1.0536
 1995SOL     OW 6119   3.217   4.295   2.142 -0.2682 -0.2364 -0.4026
 1995SOL    HW1 6120   3.199   4.202   2.137 -1.6449  0.0916 -3.0702
 1995SOL    HW2 6121   3.138   4.334   2.180 -0.2771 -0.0090 -0.6500
 1996SOL     OW 6122   1.501   4.770   3.338 -0.3601 -0.2877 -0.0955
 1996SOL    HW1 6123   1.478   4.817   3.259  0.0555  0.6711  0.3438
 1996SOL    HW2 6124   1.595   4.786   3.350 -0.3955 -0.5083  0.5303
 1997SOL     OW 6125   3.557   0.802   2.632  0.2940  0.2592  0.0589
 1997SOL    HW1 6126   3.591   0.885   2.666  1.5160 -0.5941  1.0079
 1997SOL    HW2 6127   3.633   0.759   2.593 -0.3709 -0.3230 -0.6146
 1998SOL     OW 6128   4.917   0.951   3.098 -0.1766 -0.3553 -0.2028
 1998SOL    HW1 6129   4.903   1.045   3.105  0.7737 -0.1880 -0.4403
 1998SOL    HW2 6130   4.906   0.918   3.187  0.6960  0.1644  0.1090
 1999SOL     OW 6131   3.654   2.044   1.077 -0.1961 -0.6262  0.5938
 1999SOL    HW1 6132   3.560   2.053   1.094 -0.3718  0.3317 -0.7288
 1999SOL    HW2 6133   3.696   2.084   1.152 -0.8258 -1.4431  1.4085
 2000SOL     OW 6134   0.905   0.778   4.871 -0.4275 -0.2034  0.4676
 2000SOL    HW1 6135   0.861   0.746   4.792 -3.2848 -0.4694  2.0290
 2000SOL    HW2 6136   0.850   0.748   4.943  0.2044  2.8027  2.4009
 2001SOL     OW 6137   1.887   4.317   0.517 -0.5605 -0.4744 -0.0816
 2001SOL    HW1 6138   1.973   4.329   0.477 -0.1350  1.3871  1.2781
 2001SOL    HW2 6139   1.831   4.290   0.444  1.3643 -3.0070 -0.7748
 2002SOL     OW 6140   4.000   2.280   2.375 -0.0973 -0.0446 -0.0962
 2002SOL    HW1 6141   4.051   2.307   2.298  0.2303 -0.6426 -0.1032
 2002SOL    HW2 6142   4.056   2.300   2.449  0.4816 -1.3437 -0.1413
 2003SOL     OW 6143   1.540   0.435   3.758 -0.5789  0.1570  0.6810
 2003SOL    HW1 6144   1.464   0.403   3.805  0.1558  0.0709  1.8394
 2003SOL    HW2 6145   1.615   0.411   3.813  0.4994 -1.6918 -1.4157
 2004SOL     OW 6146   0.433   2.357   0.604  0.3774 -0.0149 -0.1450
 2004SOL    HW1 6147   0.368   2.363   0.674  0.8111 -1.5268  0.4266
 2004SOL    HW2 6148   0.402   2.285   0.549  1.2794 -0.3969 -0.1698
 2005SOL     OW 6149   2.441   4.870   4.053  0.0421 -0.1669 -0.4212
 2005SOL    HW1 6150   2.395   4.795   4.089 -0.9496  0.3779 -0.5292
 2005SOL    HW2 6151   2.469   4.920   4.129 -1.9251  0.9087 -0.3460
 2006SOL     OW 6152   1.919   3.542   4.942 -0.2183 -0.3640  0.0283
 2006SOL    HW1 6153   1.938   3.450   4.923  0.7282  0.1702 -2.0183
 2006SOL    HW2 6154   1.844   3.563   4.887  0.2126  0.3254 -0.3187
 2007SOL     OW 6155   4.648   3.797   3.952 -1.2372 -0.2636 -0.4017
 2007SOL    HW1 6156   4.677   3.711   3.983  1.5246  1.0100  0.8785
 2007SOL    HW2 6157   4.559   3.806   3.986 -0.8867 -1.8415  1.0688
 2008SOL     OW 6158   1.054   1.163   4.634 -0.3718  0.3653  0.2086
 2008SOL    HW1 6159   1.010   1.140   4.716  0.5657  0.6013  0.8004
 2008SOL    HW2 6160   1.058   1.081   4.585  1.9370 -0.6173  1.8154
 2009SOL     OW 6161   0.134   2.171   3.144  0.4418  0.0405  0.0134
 2009SOL    HW1 6162   0.145   2.081   3.115  0.6373 -0.5872  1.8786
 2009SOL    HW2 6163   0.210   2.217   3.110 -0.1177 -0.2657 -1.7198
 2010SOL     OW 6164   0.913   3.930   2.438 -0.1832 -0.0437  0.4591
 2010SOL    HW1 6165   0.961   3.999   2.393 -0.1577 -0.0460  0.4823
 2010SOL    HW2 6166   0.981   3.877   2.481 -0.1135 -0.7999 -0.5461
 2011SOL     OW 6167   3.621   4.592   4.415  0.4326 -0.7058  0.4076
 2011SOL    HW1 6168   3.592   4.511   4.456  0.9222 -1.6965 -1.1060
 2011SOL    HW2 6169   3.711   4.604   4.446  0.9032 -1.6064 -0.5064
 2012SOL     OW 6170   1.128   3.357   0.413  0.7848  0.0779 -0.3373
 2012SOL    HW1 6171   1.076   3.435   0.432  1.7349  0.5307  0.4460
 2012SOL    HW2 6172   1.117   3.302   0.491  1.3724  0.1143 -0.2300
 2013SOL     OW 6173   4.341   2.311   4.771  0.5775 -0.5886  0.0844
 2013SOL    HW1 6174   4.278   2.261   4.824  0.4208 -0.9220 -0.4139
 2013SOL    HW2 6175   4.331   2.276   4.683  0.0200  0.7448 -0.4086
 2014SOL     OW 6176   1.944   3.093   3.730  0.4293  0.3484  0.2307
 2014SOL    HW1 6177   2.024   3.122   3.773  0.4388  1.5658 -0.5665
 2014SOL    HW2 6178   1.892   3.173   3.719 -0.6165 -0.3243  0.1541
 2015SOL     OW 6179   1.205   2.431   0.262 -0.4470 -0.5419  0.4144
 2015SOL    HW1 6180   1.274   2.495   0.243 -0.8958 -0.1303  0.1266
 2015SOL    HW2 6181   1.160   2.419   0.178 -1.9134  0.6314  0.9846
 2016SOL     OW 6182   3.140   2.619   1.528 -0.2838 -0.1400 -0.0986
 2016SOL    HW1 6183   3.166   2.658   1.445 -0.7938  1.1133  0.3008
 2016SOL    HW2 6184   3.070   2.676   1.561 -2.1658 -2.2458 -0.1843
 2017SOL     OW 6185   1.971   1.743   4.049  0.2770  0.3676  0.0196
 2017SOL    HW1 6186   2.031   1.669   4.045  0.2392  0.2640  1.0276
 2017SOL    HW2 6187   1.884   1.704   4.043  0.2388  0.2640  1.0620
 2018SOL     OW 6188   4.977   2.991   2.750  0.4225  0.3989 -0.0055
 2018SOL    HW1 6189   4.930   2.916   2.785 -0.3572  1.1349  0.5616
 2018SOL    HW2 6190   4.992   3.048   2.825  1.2295  0.7009 -0.3819
 2019SOL     OW 6191   4.119   2.607   3.220  0.4764  0.0324  0.3397
 2019SOL    HW1 6192   4.028   2.608   3.249  0.6973  0.1163  1.0683
 2019SOL    HW2 6193   4.146   2.699   3.222  0.5515  0.0174  0.0415
 2020SOL     OW 6194   2.341   3.547   2.066 -0.2461  0.4325 -0.0462
 2020SOL    HW1 6195   2.293   3.499   1.999  0.4318  0.2907 -0.4381
 2020SOL    HW2 6196   2.371   3.480   2.127 -3.2724  0.7614  2.0626
 2021SOL     OW 6197   2.963   0.474   0.484  0.3681 -0.4852  0.4219
 2021SOL    HW1 6198   2.878   0.510   0.509  0.8008  1.2759 -0.4495
 2021SOL    HW2 6199   3.027   0.536   0.520  1.2382 -1.2929  0.3012
 2022SOL     OW 6200   1.554   2.347   3.488 -0.2704 -0.6170 -0.2374
 2022SOL    HW1 6201   1.614   2.337   3.414 -0.9868  1.3157 -1.1486
 2022SOL    HW2 6202   1.514   2.260   3.498 -0.0138 -0.9939 -2.0177
 2023SOL     OW 6203   4.716   0.234   3.837 -0.1628  0.3616 -0.4362
 2023SOL    HW1 6204   4.785   0.224   3.902 -0.5206 -0.7796 -0.2205
 2023SOL    HW2 6205   4.755   0.205   3.755 -0.7538 -1.6139 -0.0745
 2024SOL     OW 6206   2.606   0.922   0.107 -0.1579  0.2013 -0.6232
 2024SOL    HW1 6207   2.625   1.005   0.063 -2.5472  0.7318 -0.7994
 2024SOL    HW2 6208   2.600   0.858   0.037  1.7453 -0.1699 -0.4821
 2025SOL     OW 6209   1.840   3.135   0.483  0.3976  0.0868 -0.3240
 2025SOL    HW1 6210   1.757   3.089   0.468 -0.1782  0.2407  1.9379
 2025SOL    HW2 6211   1.907   3.067   0.478 -0.1950 -0.5896  0.6348
 2026SOL     OW 6212   4.557   4.505   0.368  0.2613 -0.1065 -0.6354
 2026SOL    HW1 6213   4.507   4.450   0.428 -1.0508  3.2870  1.7325
 2026SOL    HW2 6214   4.490   4.551   0.317  1.1733  0.6993 -1.1446
 2027SOL     OW 6215   4.385   4.464   4.744 -0.5343  0.3386 -0.3557
 2027SOL    HW1 6216   4.349   4.486   4.658 -0.1328  1.5422 -0.2270
 2027SOL    HW2 6217   4.477   4.489   4.738 -0.0138 -1.3742 -0.1976
 2028SOL     OW 6218   0.727   1.289   3.851  0.3837  0.1566 -0.4313
 2028SOL    HW1 6219   0.695   1.202   3.827 -0.6123 -0.1973  1.9324
 2028SOL    HW2 6220   0.687   1.306   3.936  2.7508  1.7777  0.4354
 2029SOL     OW 6221   0.528   1.811   1.827  0.1024  0.4474 -0.0368
 2029SOL    HW1 6222   0.459   1.831   1.764 -1.4668  0.7093  1.6620
 2029SOL    HW2 6223   0.481   1.797   1.910  1.9300 -1.3710  0.7733
 2030SOL     OW 6224   0.102   1.552   2.658 -0.1030 -0.7262  0.4145
 2030SOL    HW1 6225   0.028   1.607   2.683  0.6263  0.2305  0.5398
 2030SOL    HW2 6226   0.172   1.614   2.638 -0.5379 -1.3622 -4.0064
 2031SOL     OW 6227   0.803   4.870   3.952 -0.2332 -0.1932 -1.3105
 2031SOL    HW1 6228   0.738   4.802   3.970  0.9611 -0.8829  0.7335
 2031SOL    HW2 6229   0.758   4.930   3.892 -2.4346 -1.1056 -0.7022
 2032SOL     OW 6230   0.223   0.099   1.260  0.2648 -0.0710 -0.1103
 2032SOL    HW1 6231   0.263   0.031   1.314 -2.5832 -0.1329  2.1593
 2032SOL    HW2 6232   0.172   0.052   1.195 -2.1080 -0.3050  1.7644
 2033SOL     OW 6233   3.841   3.216   4.792 -0.3368 -0.5267 -0.5099
 2033SOL    HW1 6234   3.910   3.193   4.854 -1.2629 -0.7943  0.4561
 2033SOL    HW2 6235   3.765   3.235   4.846 -1.6799 -2.4179 -1.5768
 2034SOL     OW 6236   1.024   4.741   2.860 -0.0749 -0.3835 -0.7500
 2034SOL    HW1 6237   0.944   4.715   2.815  1.4897 -0.6512 -3.6422
 2034SOL    HW2 6238   1.045   4.828   2.824  0.4238  0.1176  0.6980
 2035SOL     OW 6239   0.493   1.433   0.544  0.0554  0.4988  0.3640
 2035SOL    HW1 6240   0.480   1.340   0.526 -0.1510  0.6641 -0.3592
 2035SOL    HW2 6241   0.467   1.477   0.463 -2.9073  1.4024  1.6683
 2036SOL     OW 6242   0.746   0.001   2.902 -0.0643  0.0105  0.1668
 2036SOL    HW1 6243   0.703  -0.035   2.824 -3.3142 -0.0112  1.8052
 2036SOL    HW2 6244   0.785   0.083   2.872 -1.5270  0.1791 -1.4436
 2037SOL     OW 6245   3.087   2.595   4.583 -0.5096 -0.5500 -0.1238
 2037SOL    HW1 6246   3.099   2.514   4.533 -0.3306 -0.7889  0.2944
 2037SOL    HW2 6247   3.151   2.588   4.654  1.3600  1.1473 -1.5245
 2038SOL     OW 6248   2.950   2.461   0.434  0.2207  0.0969  0.0094
 2038SOL    HW1 6249   2.873   2.410   0.461 -0.1001  0.0960 -0.8721
 2038SOL    HW2 6250   2.980   2.417   0.354  0.1958  1.0223 -0.5204
 2039SOL     OW 6251   1.006   4.729   2.483 -0.3415 -1.1141 -1.0306
 2039SOL    HW1 6252   1.081   4.687   2.443 -0.7757 -1.7411 -1.2015
 2039SOL    HW2 6253   1.008   4.819   2.449  1.3654 -0.5692  0.3903
 2040SOL     OW 6254   3.187   0.396   2.847  0.2693  0.0182 -0.5154
 2040SOL    HW1 6255   3.197   0.402   2.942  0.5888 -1.3199 -0.4370
 2040SOL    HW2 6256   3.092   0.393   2.834  0.2279 -0.7767 -0.1376
 2041SOL     OW 6257   4.655   4.530   1.112 -0.0611  0.2436 -0.1969
 2041SOL    HW1 6258   4.661   4.516   1.017 -1.9966  1.3435 -0.5391
 2041SOL    HW2 6259   4.686   4.620   1.125  2.5012 -0.6613  0.6023
 2042SOL     OW 6260   2.626   2.239   2.904  0.2236  0.0618 -0.1015
 2042SOL    HW1 6261   2.576   2.306   2.950 -1.6796 -1.1206 -0.3621
 2042SOL    HW2 6262   2.602   2.250   2.812  1.3986  0.2461 -0.4003
 2043SOL     OW 6263   3.524   3.418   0.171  0.2722  0.0945 -0.4635
 2043SOL    HW1 6264   3.446   3.473   0.168  0.1271  0.0094  0.9415
 2043SOL    HW2 6265   3.550   3.419   0.263 -0.8168 -3.6469  0.0437
 2044SOL     OW 6266   0.039   4.517   3.484  1.1928  0.0222  0.1174
 2044SOL    HW1 6267   0.111   4.568   3.446 -0.9300  0.9052 -3.0928
 2044SOL    HW2 6268  -0.040   4.562   3.456 -0.7133 -0.9325  3.5023
 2045SOL     OW 6269   1.762   2.981   3.865 -0.0039  0.2706  0.3927
 2045SOL    HW1 6270   1.823   3.026   3.806 -0.9887  1.0367 -0.0674
 2045SOL    HW2 6271   1.686   2.962   3.811 -2.0762  3.3208  1.9051
 2046SOL     OW 6272   0.757   4.160   0.180 -0.1376  0.0129 -0.0240
 2046SOL    HW1 6273   0.754   4.224   0.109  0.6083  1.5776  1.2959
 2046SOL    HW2 6274   0.850   4.149   0.199 -0.3441  0.0722  1.0912
 2047SOL     OW 6275   3.315   0.164   2.662  0.4891  0.1325  0.4215
 2047SOL    HW1 6276   3.245   0.205   2.611  0.8074  1.6082  1.1250
 2047SOL    HW2 6277   3.286   0.073   2.673 -0.2173  0.1170 -1.2238
 2048SOL     OW 6278   3.915   1.421   2.172 -0.3513 -0.5134  0.4089
 2048SOL    HW1 6279   3.878   1.410   2.085 -0.6691  1.1530  0.2999
 2048SOL    HW2 6280   3.996   1.370   2.170 -0.4306 -0.6141 -0.8131
 2049SOL     OW 6281   0.087   2.726   1.893  0.3765  0.6661 -0.6483
 2049SOL    HW1 6282   0.076   2.737   1.798  2.3733  1.1431 -0.8760
 2049SOL    HW2 6283   0.012   2.674   1.920  0.1346 -0.0873 -2.6191
 2050SOL     OW 6284   3.986   4.834   0.121  0.1007  0.0836 -0.1973
 2050SOL    HW1 6285   3.918   4.845   0.188 -0.4860  0.7152 -0.8828
 2050SOL    HW2 6286   4.033   4.918   0.121  0.7174 -0.2595  0.0913
 2051SOL     OW 6287   3.112   4.615   2.741  0.1353 -0.7889  0.0328
 2051SOL    HW1 6288   3.027   4.618   2.697  0.0138 -0.9666  0.2546
 2051SOL    HW2 6289   3.108   4.536   2.796 -0.8000  0.8734  2.5561
 2052SOL     OW 6290   1.889   0.751   3.911  0.0039  0.2827  0.4804
 2052SOL    HW1 6291   1.873   0.825   3.970  0.3270  1.3331 -0.7203
 2052SOL    HW2 6292   1.820   0.757   3.845 -0.5418 -1.0715  0.8876
 2053SOL     OW 6293   3.861   4.529   3.288  0.1651 -0.8043  0.2542
 2053SOL    HW1 6294   3.885   4.488   3.371  5.1171  0.5771 -0.1854
 2053SOL    HW2 6295   3.818   4.611   3.312 -0.8001 -1.5955  1.3199
 2054SOL     OW 6296   0.651   4.915   2.660  0.0011 -0.2598 -0.1261
 2054SOL    HW1 6297   0.566   4.952   2.634  0.7902  2.4063  0.7563
 2054SOL    HW2 6298   0.682   4.869   2.583 -0.9770  1.1515 -1.4153
 2055SOL     OW 6299   3.809   1.828   0.991 -0.2414 -0.5888 -0.2623
 2055SOL    HW1 6300   3.868   1.800   1.061 -0.8846 -1.7849 -0.1609
 2055SOL    HW2 6301   3.773   1.911   1.022  3.6151  1.8737 -1.6967
 2056SOL     OW 6302   3.242   0.530   3.940 -0.5755  0.0520 -0.1549
 2056SOL    HW1 6303   3.275   0.618   3.958  0.8207 -0.4573 -0.0549
 2056SOL    HW2 6304   3.161   0.523   3.990  0.2029  0.6922  1.2544
 2057SOL     OW 6305   3.227   1.333   3.789 -0.7216 -0.1465 -0.0224
 2057SOL    HW1 6306   3.300   1.393   3.774 -1.1421  0.1807 -0.8051
 2057SOL    HW2 6307   3.256   1.250   3.751 -0.8524  0.0522 -0.5641
 2058SOL     OW 6308   3.370   2.846   1.572  0.5587 -0.3321 -0.0780
 2058SOL    HW1 6309   3.345   2.758   1.600 -2.1732 -0.1606 -1.6459
 2058SOL    HW2 6310   3.372   2.841   1.477  2.2915  0.8786 -0.1540
 2059SOL     OW 6311   1.219   2.836   1.805  0.1299  0.3665 -0.4458
 2059SOL    HW1 6312   1.144   2.826   1.746  1.8460 -2.5919 -2.3742
 2059SOL    HW2 6313   1.289   2.872   1.749  1.5060 -1.5597 -0.0602
 2060SOL     OW 6314   1.367   1.648   2.359 -0.3068 -0.1787 -0.7002
 2060SOL    HW1 6315   1.354   1.558   2.389  0.6600 -0.0010  0.3472
 2060SOL    HW2 6316   1.355   1.702   2.438 -0.5026  0.5803 -1.2340
 2061SOL     OW 6317   0.845   0.604   3.733 -0.3388 -0.6248  0.2452
 2061SOL    HW1 6318   0.759   0.627   3.768 -0.3720  0.2806 -0.4109
 2061SOL    HW2 6319   0.907   0.642   3.795 -0.3974  0.9588 -0.6131
 2062SOL     OW 6320   3.375   2.004   0.590  0.3314  0.3606 -0.2095
 2062SOL    HW1 6321   3.412   2.018   0.677  2.5390 -2.5210 -0.5326
 2062SOL    HW2 6322   3.444   2.031   0.529  0.1891 -0.8715 -0.9575
 2063SOL     OW 6323   0.335   3.851   2.646 -0.0987 -0.2379 -0.6692
 2063SOL    HW1 6324   0.381   3.773   2.615  1.4135  0.0436  0.6995
 2063SOL    HW2 6325   0.403   3.904   2.688 -1.5846  0.4339  1.0472
 2064SOL     OW 6326   4.178   1.537   1.469  0.2105  0.0581  0.4530
 2064SOL    HW1 6327   4.148   1.471   1.532 -0.5192 -0.7402 -0.6801
 2064SOL    HW2 6328   4.197   1.487   1.389  0.0378  1.1662 -0.3072
 2065SOL     OW 6329   1.185   3.801   2.830 -0.8413 -0.2622  0.5822
 2065SOL    HW1 6330   1.146   3.867   2.887  2.0690  1.9158  0.2469
 2065SOL    HW2 6331   1.266   3.776   2.874  0.8624  0.5531 -1.9073
 2066SOL     OW 6332   3.427   2.850   0.510  0.7609  0.5700 -0.1602
 2066SOL    HW1 6333   3.489   2.901   0.459  0.6913  0.8066 -0.0063
 2066SOL    HW2 6334   3.388   2.790   0.446  1.9317 -0.3431 -0.0670
 2067SOL     OW 6335   2.286   4.634   2.516  0.1285 -0.2723  0.4439
 2067SOL    HW1 6336   2.265   4.551   2.472  1.2529  0.3033 -1.2775
 2067SOL    HW2 6337   2.220   4.696   2.485  0.0347 -0.2168  0.7514
 2068SOL     OW 6338   1.413   2.483   4.933  0.2257 -0.8184  0.2976
 2068SOL    HW1 6339   1.458   2.524   4.860 -0.0451 -2.7456 -1.0352
 2068SOL    HW2 6340   1.467   2.504   5.010 -0.1471  2.3035 -0.1626
 2069SOL     OW 6341   0.352   0.437   0.159  0.0010  0.1507  0.3000
 2069SOL    HW1 6342   0.430   0.475   0.199  1.0262 -2.3589  0.8367
 2069SOL    HW2 6343   0.359   0.343   0.176 -2.9847 -0.2173  0.0891
 2070SOL     OW 6344   2.196   0.278   1.267 -0.3557  0.4209 -0.5622
 2070SOL    HW1 6345   2.153   0.207   1.219 -0.4402 -0.2635  0.4821
 2070SOL    HW2 6346   2.133   0.303   1.334  0.2093  0.5657 -0.0782
 2071SOL     OW 6347   1.555   1.595   4.250 -0.2384 -1.1165 -0.0062
 2071SOL    HW1 6348   1.490   1.547   4.301  0.9685 -1.1997  1.5250
 2071SOL    HW2 6349   1.639   1.565   4.284  0.5748  0.6629 -0.3249
 2072SOL     OW 6350   4.082   2.419   0.799 -0.1607 -0.1447  0.4063
 2072SOL    HW1 6351   4.092   2.509   0.828  0.9948  0.6026 -1.9857
 2072SOL    HW2 6352   3.989   2.410   0.778 -0.2507  0.5457  0.4980
 2073SOL     OW 6353   4.959   1.728   3.210 -0.5246 -0.3976  0.0705
 2073SOL    HW1 6354   5.006   1.719   3.293  1.6036  1.0173 -0.9128
 2073SOL    HW2 6355   4.922   1.641   3.194 -1.1889 -0.6475  2.5763
 2074SOL     OW 6356   2.120   3.125   1.699  0.2449 -0.2406 -0.1712
 2074SOL    HW1 6357   2.165   3.077   1.630  2.2316  0.9478  0.2057
 2074SOL    HW2 6358   2.084   3.203   1.656  0.8116  0.1116 -0.0128
 2075SOL     OW 6359   2.195   1.515   3.548 -0.2182  0.4360 -0.1398
 2075SOL    HW1 6360   2.218   1.423   3.564 -1.0223  0.1932 -0.3453
 2075SOL    HW2 6361   2.234   1.534   3.462  2.0376  1.0327  0.9370
 2076SOL     OW 6362   4.751   0.376   0.734 -0.4024 -0.4253 -0.0006
 2076SOL    HW1 6363   4.751   0.346   0.643 -1.7683 -0.6642  0.0609
 2076SOL    HW2 6364   4.829   0.431   0.741 -0.1416 -0.6076 -1.2395
 2077SOL     OW 6365   1.380   0.587   4.869 -0.0480 -0.3115 -0.0741
 2077SOL    HW1 6366   1.372   0.568   4.775 -0.3711  0.0971 -0.1305
 2077SOL    HW2 6367   1.323   0.662   4.883  1.1640  0.5911  0.1652
 2078SOL     OW 6368   2.050   3.810   2.777  0.3715 -0.2662 -0.1327
 2078SOL    HW1 6369   2.123   3.773   2.827 -0.8161 -0.2358  1.7258
 2078SOL    HW2 6370   2.038   3.898   2.813 -1.5064 -0.8025  0.6598
 2079SOL     OW 6371   0.866   0.855   0.477  0.1924 -0.1031 -0.5407
 2079SOL    HW1 6372   0.879   0.906   0.396 -2.2824 -1.2981 -1.7817
 2079SOL    HW2 6373   0.825   0.774   0.448  1.5495 -1.6858  1.7004
 2080SOL     OW 6374   1.236   1.871   2.136  1.1499  0.3355 -0.1596
 2080SOL    HW1 6375   1.162   1.912   2.090  0.8995 -1.0573 -1.0562
 2080SOL    HW2 6376   1.264   1.937   2.200 -0.7763  0.9596  0.1145
 2081SOL     OW 6377   2.617   1.793   2.326 -0.0718  0.2744  0.4600
 2081SOL    HW1 6378   2.669   1.816   2.249  0.5090  0.5581  0.9204
 2081SOL    HW2 6379   2.658   1.713   2.359  0.1556  0.5622  0.8901
 2082SOL     OW 6380   1.736   3.876   2.654  0.6189  0.0983 -0.5414
 2082SOL    HW1 6381   1.808   3.832   2.608 -0.1394 -0.8240 -0.8752
 2082SOL    HW2 6382   1.660   3.819   2.640  0.2138  0.1344  1.2804
 2083SOL     OW 6383   0.188   4.251   4.667 -0.2738 -0.1034 -0.2787
 2083SOL    HW1 6384   0.098   4.237   4.697 -0.5002 -0.7641 -1.2344
 2083SOL    HW2 6385   0.203   4.344   4.681 -0.7456 -0.1652  0.8297
 2084SOL     OW 6386   1.130   4.474   0.620  0.2516 -0.0970  0.1323
 2084SOL    HW1 6387   1.144   4.433   0.705 -0.1518 -0.8020 -0.1315
 2084SOL    HW2 6388   1.218   4.481   0.582  0.4643  0.4809  0.7120
 2085SOL     OW 6389   1.771   2.066   3.632  0.1368  0.2600  0.4696
 2085SOL    HW1 6390   1.728   1.983   3.654 -1.7281  0.7178 -1.1311
 2085SOL    HW2 6391   1.800   2.101   3.716 -1.0175 -0.9834  1.4317
 2086SOL     OW 6392   4.027   4.466   3.570  0.7050 -0.1185 -0.3795
 2086SOL    HW1 6393   4.004   4.373   3.572 -1.1584  0.3098  0.5006
 2086SOL    HW2 6394   3.953   4.510   3.613  0.6268  1.9573 -2.4598
 2087SOL     OW 6395   2.181   2.232   4.042  0.2905  0.2043 -0.6583
 2087SOL    HW1 6396   2.122   2.176   4.093  1.3711 -1.2602 -0.9238
 2087SOL    HW2 6397   2.265   2.227   4.089  0.2541  2.2309 -0.2917
 2088SOL     OW 6398   0.946   3.684   1.149  0.3460  0.0135  0.5345
 2088SOL    HW1 6399   0.885   3.633   1.095 -0.5435  0.5602  0.9975
 2088SOL    HW2 6400   0.924   3.775   1.130  0.6326  0.2120  1.1373
 2089SOL     OW 6401   2.965   1.516   0.334  0.3525  0.3796  0.0799
 2089SOL    HW1 6402   2.883   1.531   0.288 -0.4478 -1.2361  0.8901
 2089SOL    HW2 6403   3.008   1.602   0.336 -0.5482  0.9222 -1.7682
 2090SOL     OW 6404   3.449   1.577   0.258 -0.2635  0.6339  0.2523
 2090SOL    HW1 6405   3.411   1.639   0.319 -1.5036 -2.3983  2.8200
 2090SOL    HW2 6406   3.492   1.512   0.313  0.7531 -0.9600 -2.2380
 2091SOL     OW 6407   4.758   2.745   0.875 -0.2927  0.0755 -0.7054
 2091SOL    HW1 6408   4.724   2.704   0.795  0.5655 -0.8443 -0.6237
 2091SOL    HW2 6409   4.853   2.736   0.867 -0.1853  0.2823  0.2634
 2092SOL     OW 6410   4.459   2.270   0.622  0.1589 -0.0714 -0.1338
 2092SOL    HW1 6411   4.468   2.224   0.539  0.5673  0.9092 -0.6628
 2092SOL    HW2 6412   4.545   2.262   0.663  0.5427  1.0049 -0.6770
 2093SOL     OW 6413   3.928   2.149   4.411 -0.0891  0.4313 -0.6877
 2093SOL    HW1 6414   3.939   2.134   4.505  1.3024  1.9653 -0.5543
 2093SOL    HW2 6415   3.978   2.079   4.369  0.2265  0.3814 -0.2396
 2094SOL     OW 6416   4.990   2.529   4.420  0.0875 -0.0661  0.3119
 2094SOL    HW1 6417   4.930   2.488   4.358  0.7284  0.7673 -0.8982
 2094SOL    HW2 6418   5.074   2.530   4.374  0.4072  1.2421  0.8888
 2095SOL     OW 6419   4.140   1.961   2.799  0.3593 -0.4989 -0.3227
 2095SOL    HW1 6420   4.198   1.967   2.722 -0.1041 -1.3448 -0.7468
 2095SOL    HW2 6421   4.170   1.883   2.845  2.3256  1.3788  1.7990
 2096SOL     OW 6422   2.562   3.911   1.089  0.0764 -0.0762  0.1017
 2096SOL    HW1 6423   2.636   3.883   1.035 -0.4902 -1.5830  0.0668
 2096SOL    HW2 6424   2.503   3.956   1.029  0.3331 -0.0698 -0.1455
 2097SOL     OW 6425   3.581   0.289   3.123  0.3896 -0.7848 -0.0237
 2097SOL    HW1 6426   3.501   0.336   3.149  0.4323 -1.1807  0.8599
 2097SOL    HW2 6427   3.558   0.247   3.040  0.7208  1.7346 -1.4850
 2098SOL     OW 6428   1.148   2.511   4.963  0.4357  0.4263 -0.2108
 2098SOL    HW1 6429   1.243   2.506   4.958  0.5861 -1.1424  2.3925
 2098SOL    HW2 6430   1.118   2.428   4.926  0.1142  0.6710 -0.4997
 2099SOL     OW 6431   2.236   1.150   4.787  0.3211 -0.2353  0.7970
 2099SOL    HW1 6432   2.217   1.159   4.880  0.8315 -0.5760  0.9328
 2099SOL    HW2 6433   2.171   1.088   4.755 -3.8884  4.0761 -0.3307
 2100SOL     OW 6434   2.089   4.029   1.252  0.3885 -0.0949  0.3154
 2100SOL    HW1 6435   2.167   4.075   1.222  0.1665  0.4533  0.5514
 2100SOL    HW2 6436   2.118   3.940   1.270  0.8281 -0.0462 -0.1519
 2101SOL     OW 6437   4.167   4.470   4.552 -0.7462  0.3052 -0.0471
 2101SOL    HW1 6438   4.106   4.469   4.626 -2.4640  0.4429 -1.3993
 2101SOL    HW2 6439   4.134   4.403   4.492 -0.5431  1.4838 -1.5551
 2102SOL     OW 6440   3.760   0.149   0.448  0.0172  0.2881 -0.3740
 2102SOL    HW1 6441   3.835   0.133   0.390 -0.2092 -0.5932 -0.4276
 2102SOL    HW2 6442   3.783   0.230   0.494  0.7368  0.3505 -0.8258
 2103SOL     OW 6443   2.685   2.018   4.505  0.7850 -0.3531  0.3820
 2103SOL    HW1 6444   2.695   1.993   4.413 -2.5148 -3.6620  0.6448
 2103SOL    HW2 6445   2.592   2.039   4.514  1.0411  0.0239  2.9351
 2104SOL     OW 6446   3.625   1.645   2.128  0.3461  0.4050  0.2223
 2104SOL    HW1 6447   3.660   1.626   2.041 -0.6325  1.2237 -0.3704
 2104SOL    HW2 6448   3.608   1.559   2.166 -0.0822  0.0446 -0.7555
 2105SOL     OW 6449   4.341   0.409   2.719 -0.4296 -0.5642 -0.5399
 2105SOL    HW1 6450   4.352   0.422   2.813 -0.8754  1.4089 -0.7358
 2105SOL    HW2 6451   4.254   0.370   2.710 -0.8001  0.1760 -0.1972
 2106SOL     OW 6452   3.623   1.119   0.064 -0.5342 -0.2065  0.5391
 2106SOL    HW1 6453   3.631   1.093   0.156  1.4755 -1.3518  0.1251
 2106SOL    HW2 6454   3.701   1.172   0.047 -3.0072  3.8336  0.5193
 2107SOL     OW 6455   4.659   3.827   2.213  0.2822  0.7660 -0.2549
 2107SOL    HW1 6456   4.658   3.912   2.257 -2.4511 -0.5528  2.6010
 2107SOL    HW2 6457   4.718   3.773   2.266 -1.1446 -0.1758  0.4413
 2108SOL     OW 6458   3.772   2.352   2.976  0.2286  0.0612 -0.1595
 2108SOL    HW1 6459   3.864   2.327   2.984  0.2722  0.0697 -0.5991
 2108SOL    HW2 6460   3.753   2.344   2.883 -0.4226 -0.6533  0.0251
 2109SOL     OW 6461   0.058   2.788   3.663 -0.0441 -0.2286 -0.0998
 2109SOL    HW1 6462   0.048   2.700   3.699 -3.2702  0.3234  0.6836
 2109SOL    HW2 6463   0.095   2.839   3.735  0.6605 -0.6851 -0.1350
 2110SOL     OW 6464   3.532   3.726   0.030 -0.1634  0.6206  0.1920
 2110SOL    HW1 6465   3.542   3.739   0.125  1.9258 -0.2557  0.1601
 2110SOL    HW2 6466   3.609   3.769  -0.008  0.3994 -1.1789 -0.8523
 2111SOL     OW 6467   2.247   4.379   1.579 -0.1590 -0.0611 -0.2100
 2111SOL    HW1 6468   2.250   4.427   1.496 -1.9912 -0.4980 -0.5914
 2111SOL    HW2 6469   2.171   4.322   1.569  0.6233 -1.3718  1.1240
 2112SOL     OW 6470   1.077   2.917   3.433  0.9264  0.5658  0.2863
 2112SOL    HW1 6471   1.155   2.871   3.403  0.3934 -0.3889  0.3190
 2112SOL    HW2 6472   1.037   2.857   3.497  0.2405  1.0994  0.3731
 2113SOL     OW 6473   4.651   3.334   4.843 -0.0300  0.4233 -0.1186
 2113SOL    HW1 6474   4.569   3.335   4.893  1.2343  1.2239  2.0417
 2113SOL    HW2 6475   4.696   3.255   4.873  0.5544  0.6779 -0.3141
 2114SOL     OW 6476   2.850   0.603   3.403  0.0644  0.6165 -0.1265
 2114SOL    HW1 6477   2.848   0.561   3.489  0.8927  2.3294  0.7836
 2114SOL    HW2 6478   2.771   0.658   3.401 -0.1753  0.2653 -0.6485
 2115SOL     OW 6479   0.460   4.492   3.213  0.4332 -0.0751  0.5970
 2115SOL    HW1 6480   0.373   4.454   3.225  0.2703  0.4809  1.2236
 2115SOL    HW2 6481   0.479   4.478   3.120 -1.6179  2.4411 -0.3424
 2116SOL     OW 6482   2.482   1.434   2.952  0.0304  0.3825  0.0934
 2116SOL    HW1 6483   2.548   1.494   2.918  0.5212  0.0601  0.4435
 2116SOL    HW2 6484   2.510   1.417   3.042  1.4702 -2.4392 -0.7597
 2117SOL     OW 6485   1.225   1.120   1.967 -0.1189 -0.1826  0.2899
 2117SOL    HW1 6486   1.244   1.165   1.884  0.9282 -0.0162  0.6156
 2117SOL    HW2 6487   1.180   1.040   1.940 -1.9036  0.9492 -0.3057
 2118SOL     OW 6488   4.252   3.939   0.153  0.9567  0.3278  0.2571
 2118SOL    HW1 6489   4.297   3.873   0.206  1.2370  1.1093  1.0348
 2118SOL    HW2 6490   4.281   4.023   0.190  1.7979  0.9351 -1.6696
 2119SOL     OW 6491   4.795   1.422   0.491 -0.6118  0.1690 -0.6228
 2119SOL    HW1 6492   4.833   1.503   0.526  0.6081  0.1634 -1.8444
 2119SOL    HW2 6493   4.813   1.426   0.397 -2.4601 -0.5219 -1.0482
 2120SOL     OW 6494   2.874   0.941   1.390  0.2929  0.1467  0.2946
 2120SOL    HW1 6495   2.895   0.873   1.326 -0.1090  0.2415  0.0598
 2120SOL    HW2 6496   2.933   0.924   1.463  1.4243  0.6102 -0.4818
 2121SOL     OW 6497   3.742   1.667   0.203 -0.3292  0.0014 -0.6191
 2121SOL    HW1 6498   3.648   1.655   0.218 -0.2283 -0.9443 -0.7271
 2121SOL    HW2 6499   3.778   1.579   0.197  0.6491  0.3461 -0.1311
 2122SOL     OW 6500   3.813   3.187   1.534 -0.1991  0.3785 -0.2211
 2122SOL    HW1 6501   3.753   3.216   1.603 -0.8161  0.9503 -0.9953
 2122SOL    HW2 6502   3.856   3.110   1.572 -0.5263  0.6816  0.8078
 2123SOL     OW 6503   0.623   0.291   0.986 -0.1393  0.2205 -0.6218
 2123SOL    HW1 6504   0.676   0.345   0.927  1.1351  0.4723  0.6814
 2123SOL    HW2 6505   0.558   0.350   1.022 -0.0610  0.3936 -0.7673
 2124SOL     OW 6506   3.533   2.682   1.922 -0.4152  0.1152 -0.5239
 2124SOL    HW1 6507   3.599   2.614   1.915 -0.2633  0.3407 -1.3050
 2124SOL    HW2 6508   3.465   2.657   1.860 -1.1811 -0.2241  0.4132
 2125SOL     OW 6509   0.043   2.359   2.692  0.3327 -0.2564  0.0535
 2125SOL    HW1 6510   0.130   2.329   2.667  0.2814  0.2242 -0.7322
 2125SOL    HW2 6511   0.038   2.342   2.786  0.3811 -2.5053 -0.2955
 2126SOL     OW 6512   2.618   1.079   1.385 -0.1723  0.1921  0.3380
 2126SOL    HW1 6513   2.548   1.024   1.350 -0.1306 -0.3102  1.0169
 2126SOL    HW2 6514   2.696   1.022   1.383  0.4556  1.0278 -1.2616
 2127SOL     OW 6515   3.071   0.986   4.731  0.8924  0.0948 -0.4012
 2127SOL    HW1 6516   3.055   0.911   4.788  1.7270  0.4010  0.2577
 2127SOL    HW2 6517   3.070   1.061   4.790  1.8409  0.4055 -0.7640
 2128SOL     OW 6518   2.370   1.898   3.032 -0.1337  0.3430  0.7775
 2128SOL    HW1 6519   2.356   1.804   3.024 -1.0576  0.5948 -1.2057
 2128SOL    HW2 6520   2.431   1.919   2.961  0.7701  1.1378  1.7481
 2129SOL     OW 6521   2.926   0.929   1.013 -0.2187 -0.0658  0.1907
 2129SOL    HW1 6522   2.998   0.991   1.024  0.4043 -0.4931 -1.2978
 2129SOL    HW2 6523   2.851   0.973   1.053  1.0963 -0.1926  3.0568
 2130SOL     OW 6524   3.989   4.213   1.486 -0.0301 -0.3434 -0.0007
 2130SOL    HW1 6525   4.066   4.172   1.524 -0.5156 -0.1290  1.2834
 2130SOL    HW2 6526   3.921   4.146   1.489 -0.1047 -0.2922 -0.4201
 2131SOL     OW 6527   1.104   0.521   3.643 -0.0682  0.3431  0.2122
 2131SOL    HW1 6528   1.120   0.609   3.608 -1.7220  1.1598  1.3966
 2131SOL    HW2 6529   1.026   0.530   3.698 -0.2526 -1.8654  0.4180
 2132SOL     OW 6530   1.068   0.622   4.091 -0.1847 -0.2389 -0.0407
 2132SOL    HW1 6531   1.045   0.551   4.032  0.0088  1.3064 -2.1027
 2132SOL    HW2 6532   1.152   0.654   4.059 -0.3889  1.0644  0.6373
 2133SOL     OW 6533   4.213   3.242   0.305 -0.5015 -0.0723  0.0913
 2133SOL    HW1 6534   4.268   3.316   0.328 -0.7556  0.3230 -0.5279
 2133SOL    HW2 6535   4.130   3.259   0.350 -0.5134 -0.0523  0.0621
 2134SOL     OW 6536   3.325   1.744   2.827  0.1195  0.1097  0.4477
 2134SOL    HW1 6537   3.370   1.796   2.761  0.1608  0.7254  0.9517
 2134SOL    HW2 6538   3.244   1.792   2.845 -0.9263 -1.1358 -0.6714
 2135SOL     OW 6539   1.997   3.654   2.569  0.4961 -0.4838 -0.2032
 2135SOL    HW1 6540   2.028   3.670   2.480 -0.1409 -0.0317 -0.3455
 2135SOL    HW2 6541   2.031   3.728   2.619 -0.1840 -0.0806 -0.3241
 2136SOL     OW 6542   3.664   4.061   4.771  0.1505 -0.1027  0.0573
 2136SOL    HW1 6543   3.690   4.079   4.680  0.1658  2.5141  0.5009
 2136SOL    HW2 6544   3.725   3.993   4.800  1.0521 -0.0037 -1.4777
 2137SOL     OW 6545   1.652   3.151   1.680  0.6844  1.0273  0.0908
 2137SOL    HW1 6546   1.603   3.090   1.735 -0.5746  2.3793  0.5064
 2137SOL    HW2 6547   1.587   3.191   1.623  1.9355 -0.2666 -2.4200
 2138SOL     OW 6548   3.702   4.002   3.681 -0.2654 -0.1704 -0.3245
 2138SOL    HW1 6549   3.637   3.953   3.732 -1.4538  0.8760 -0.7807
 2138SOL    HW2 6550   3.782   3.996   3.733 -0.7586 -1.3580  0.3409
 2139SOL     OW 6551   0.107   2.539   3.780 -0.1662 -0.0348 -0.4311
 2139SOL    HW1 6552   0.104   2.552   3.875  0.5471  0.4337 -0.4692
 2139SOL    HW2 6553   0.193   2.500   3.764 -0.4210 -0.4296 -0.8517
 2140SOL     OW 6554   0.825   0.768   4.166 -0.1460  0.2832  0.5292
 2140SOL    HW1 6555   0.920   0.774   4.166 -0.2234  2.1521  1.4666
 2140SOL    HW2 6556   0.803   0.727   4.250 -0.1433 -2.2959 -0.6277
 2141SOL     OW 6557   1.987   4.321   1.403  0.5306 -0.1652  0.1389
 2141SOL    HW1 6558   2.054   4.291   1.342 -0.4010 -0.8720 -0.5495
 2141SOL    HW2 6559   1.963   4.243   1.453  0.9651  0.3078  1.1385
 2142SOL     OW 6560   3.221   1.023   4.128  0.3005  0.4488  0.4786
 2142SOL    HW1 6561   3.255   1.067   4.206  1.2384  1.1903 -0.3115
 2142SOL    HW2 6562   3.127   1.021   4.141  0.2979  2.0003  0.9296
 2143SOL     OW 6563   3.863   4.085   2.327  0.6501 -0.0398 -0.3359
 2143SOL    HW1 6564   3.927   4.052   2.264 -0.6715 -0.1453 -1.6778
 2143SOL    HW2 6565   3.798   4.015   2.335 -0.0250  0.6008 -0.0684
 2144SOL     OW 6566   0.962   2.332   1.591 -0.6889 -0.2644 -0.2474
 2144SOL    HW1 6567   1.015   2.400   1.633  0.6259 -2.2250  1.4812
 2144SOL    HW2 6568   0.950   2.363   1.502 -3.1155  3.8499  1.2702
 2145SOL     OW 6569   3.002   2.569   1.112  0.1663 -0.1087  0.2004
 2145SOL    HW1 6570   2.948   2.590   1.036  0.8899  1.0163 -0.0303
 2145SOL    HW2 6571   2.990   2.643   1.171  0.4801 -0.4487  0.6953
 2146SOL     OW 6572   4.259   1.698   2.855 -0.2540 -0.5286 -0.4326
 2146SOL    HW1 6573   4.242   1.615   2.900  0.0779 -0.5462 -0.3347
 2146SOL    HW2 6574   4.196   1.700   2.783 -0.4460 -0.7389 -0.2719
 2147SOL     OW 6575   1.746   2.892   3.180  0.1210 -0.1465  0.4068
 2147SOL    HW1 6576   1.727   2.799   3.187 -1.6830  0.1899  0.5395
 2147SOL    HW2 6577   1.743   2.924   3.270 -0.1903  0.1913  0.2791
 2148SOL     OW 6578   0.562   0.538   0.332 -0.5131 -0.1806 -0.5659
 2148SOL    HW1 6579   0.654   0.547   0.307 -0.8572  1.1685 -1.5311
 2148SOL    HW2 6580   0.539   0.623   0.370 -1.8659  0.2903 -2.2597
 2149SOL     OW 6581   2.921   0.402   2.755  0.0890  0.3173  0.6294
 2149SOL    HW1 6582   2.839   0.406   2.805  0.2998 -2.7380  1.4116
 2149SOL    HW2 6583   2.894   0.413   2.664 -1.2467 -0.6981  0.8655
 2150SOL     OW 6584   2.917   3.443   0.876  0.5001  0.1931  0.1758
 2150SOL    HW1 6585   2.925   3.348   0.885 -2.2064 -0.2446 -1.0134
 2150SOL    HW2 6586   2.885   3.473   0.961  1.3086  0.0670  0.5351
 2151SOL     OW 6587   3.920   1.820   0.031  0.0861  0.0743  0.4132
 2151SOL    HW1 6588   3.986   1.775  -0.021  0.0175  1.9377 -1.4373
 2151SOL    HW2 6589   3.864   1.750   0.065  2.5568 -1.4912  1.4764
 2152SOL     OW 6590   2.704   4.246   3.352  0.1285  0.0171 -0.2233
 2152SOL    HW1 6591   2.689   4.184   3.424 -0.6127  0.2400 -0.1746
 2152SOL    HW2 6592   2.630   4.307   3.357 -0.1167 -0.1592 -1.3797
 2153SOL     OW 6593   4.877   3.229   0.267 -0.4782 -0.3349  0.5392
 2153SOL    HW1 6594   4.815   3.301   0.276 -0.3767  0.0858 -1.5719
 2153SOL    HW2 6595   4.955   3.269   0.227 -0.0079 -1.4007  0.3406
 2154SOL     OW 6596   4.776   1.894   0.912 -0.4215 -0.5660 -0.5886
 2154SOL    HW1 6597   4.829   1.971   0.933 -1.7167 -0.2286  1.7599
 2154SOL    HW2 6598   4.833   1.841   0.856  1.6239  0.7167  0.1420
 2155SOL     OW 6599   1.668   4.132   3.245  0.9827 -0.0465 -0.2749
 2155SOL    HW1 6600   1.636   4.210   3.290  2.4053 -1.4088  3.4970
 2155SOL    HW2 6601   1.631   4.138   3.157 -2.3994  2.7124  1.1113
 2156SOL     OW 6602   0.045   2.968   4.633 -0.5485  0.3355 -0.4719
 2156SOL    HW1 6603  -0.043   3.005   4.626  0.0533  1.9602  0.0224
 2156SOL    HW2 6604   0.103   3.039   4.605  0.7177  0.0329  1.2476
 2157SOL     OW 6605   4.669   4.809   2.526 -0.0200  0.3066 -0.1339
 2157SOL    HW1 6606   4.626   4.750   2.463  2.5089 -1.7730 -0.0671
 2157SOL    HW2 6607   4.627   4.789   2.610 -1.8484  1.4806 -0.7010
 2158SOL     OW 6608   2.213   3.031   3.075  0.2255 -0.6308  0.5309
 2158SOL    HW1 6609   2.307   3.044   3.076  0.2461 -0.7802  0.5542
 2158SOL    HW2 6610   2.178   3.102   3.129  0.4192 -1.2865  1.5517
 2159SOL     OW 6611   4.009   2.423   4.210 -0.1406  0.4630 -0.3944
 2159SOL    HW1 6612   3.940   2.399   4.148 -0.1312 -0.2060 -0.1464
 2159SOL    HW2 6613   4.076   2.464   4.156 -0.7904  1.2740 -0.6237
 2160SOL     OW 6614   1.418   4.199   3.851  0.2027  0.1954 -0.3533
 2160SOL    HW1 6615   1.463   4.131   3.900 -0.5101 -0.6685 -0.8571
 2160SOL    HW2 6616   1.390   4.156   3.770 -1.1538  0.7903 -0.2351
 2161SOL     OW 6617   2.679   2.155   2.234  0.1802  0.0677 -0.8935
 2161SOL    HW1 6618   2.723   2.071   2.221  0.4269  0.2978 -1.6178
 2161SOL    HW2 6619   2.611   2.157   2.167 -1.2567 -0.4750  0.4980
 2162SOL     OW 6620   3.991   1.079   4.343  0.1600 -0.7276 -0.2244
 2162SOL    HW1 6621   3.944   0.996   4.339  1.8059 -1.6357 -2.0985
 2162SOL    HW2 6622   4.007   1.102   4.251 -0.0486  1.5635  0.2494
 2163SOL     OW 6623   1.844   1.593   2.217  0.2180 -0.1724  0.2576
 2163SOL    HW1 6624   1.843   1.614   2.311 -2.0277  0.2133  0.2087
 2163SOL    HW2 6625   1.927   1.546   2.204 -0.7875 -3.1430  3.1069
 2164SOL     OW 6626   3.527   2.271   2.081  0.8305  1.1389 -0.8000
 2164SOL    HW1 6627   3.486   2.272   2.168  1.3979  2.1927 -0.5245
 2164SOL    HW2 6628   3.579   2.191   2.080 -0.8242  0.0077 -0.9811
 2165SOL     OW 6629   0.885   1.043   4.836 -0.3180  0.0126  0.2347
 2165SOL    HW1 6630   0.939   0.973   4.874  0.2414  2.0101  3.5812
 2165SOL    HW2 6631   0.795   1.010   4.843  0.0530 -1.1011 -0.0622
 2166SOL     OW 6632   2.186   4.792   0.378 -0.0620 -0.5942  0.0876
 2166SOL    HW1 6633   2.184   4.883   0.347 -0.3753 -0.1692  1.2907
 2166SOL    HW2 6634   2.276   4.779   0.409  0.4191 -1.2073 -1.4749
 2167SOL     OW 6635   3.311   1.492   2.730  0.3899  0.1419 -0.2565
 2167SOL    HW1 6636   3.223   1.468   2.760  1.5415 -0.7216  2.8374
 2167SOL    HW2 6637   3.316   1.586   2.743 -0.0696  0.1797 -0.3545
 2168SOL     OW 6638   2.171   3.992   1.514  0.5487 -0.0967 -0.1353
 2168SOL    HW1 6639   2.086   4.029   1.537  1.5623  4.4707 -2.6396
 2168SOL    HW2 6640   2.162   3.966   1.422  1.4905 -0.8671 -0.0300
 2169SOL     OW 6641   0.207   4.689   3.138  0.2515  0.2187 -0.0789
 2169SOL    HW1 6642   0.112   4.673   3.135 -0.0475  1.9437 -1.0328
 2169SOL    HW2 6643   0.244   4.624   3.080 -0.3215 -0.6383  0.4942
 2170SOL     OW 6644   4.151   0.169   2.791 -0.4012  0.4671 -0.8264
 2170SOL    HW1 6645   4.185   0.150   2.879  0.5826 -0.3634 -1.3640
 2170SOL    HW2 6646   4.102   0.091   2.767  0.1251  0.3067 -1.3883
 2171SOL     OW 6647   2.418   4.798   2.123  1.1160 -0.2327  0.1675
 2171SOL    HW1 6648   2.359   4.726   2.145  0.3372 -0.3205 -1.9583
 2171SOL    HW2 6649   2.361   4.865   2.086  2.2514 -0.2390 -1.7464
 2172SOL     OW 6650   2.879   3.174   2.176 -0.0936 -0.3360  0.0199
 2172SOL    HW1 6651   2.973   3.170   2.162 -0.2195  0.7086 -1.2925
 2172SOL    HW2 6652   2.860   3.099   2.233  1.7690  0.4634  1.8522
 2173SOL     OW 6653   2.605   2.399   2.476 -1.1234  0.1415  0.3117
 2173SOL    HW1 6654   2.619   2.447   2.394 -1.7280 -0.3444 -0.0802
 2173SOL    HW2 6655   2.693   2.375   2.505 -0.7227  2.0641  0.8789
 2174SOL     OW 6656   3.856   2.773   2.268 -0.0629  0.1234 -0.2507
 2174SOL    HW1 6657   3.860   2.867   2.251  1.7163  0.0210 -0.5965
 2174SOL    HW2 6658   3.931   2.737   2.220 -1.8787 -1.7688 -1.8561
 2175SOL     OW 6659   4.629   2.639   1.271  0.2813  0.1953 -0.0400
 2175SOL    HW1 6660   4.549   2.589   1.257  1.0274 -0.4490 -2.3004
 2175SOL    HW2 6661   4.623   2.712   1.209  1.2468  0.3816  0.0795
 2176SOL     OW 6662   2.566   1.016   2.806  0.2637 -0.0059 -0.2002
 2176SOL    HW1 6663   2.515   1.097   2.813  2.8547  1.6876  0.6175
 2176SOL    HW2 6664   2.614   1.025   2.724  1.7180  0.0702  0.6237
 2177SOL     OW 6665   3.648   4.898   3.133 -0.0856 -0.2783  0.4265
 2177SOL    HW1 6666   3.702   4.878   3.209  1.0263 -0.0215 -0.2617
 2177SOL    HW2 6667   3.579   4.955   3.165  0.6274  0.1845  1.1543
 2178SOL     OW 6668   0.758   3.058   4.730  0.2107  0.4631 -0.2992
 2178SOL    HW1 6669   0.732   2.966   4.741 -0.7837  0.2057 -3.7184
 2178SOL    HW2 6670   0.848   3.054   4.697  1.8350  1.0459  3.4938
 2179SOL     OW 6671   2.824   2.070   3.488 -0.3080 -0.9540 -0.3745
 2179SOL    HW1 6672   2.878   2.103   3.416 -0.3760 -1.3550 -0.6125
 2179SOL    HW2 6673   2.882   2.069   3.563 -0.2400 -0.5176 -0.4189
 2180SOL     OW 6674   1.240   4.166   0.865  0.0073 -0.4234 -0.0033
 2180SOL    HW1 6675   1.216   4.233   0.929 -0.4107 -0.8002  0.2406
 2180SOL    HW2 6676   1.331   4.186   0.842 -0.1114  0.2168  0.0769
 2181SOL     OW 6677   1.668   4.785   1.781  0.1398  0.2066  0.1490
 2181SOL    HW1 6678   1.749   4.807   1.735 -1.2154  1.3360 -1.8762
 2181SOL    HW2 6679   1.665   4.848   1.854 -1.0615  3.5346 -2.4795
 2182SOL     OW 6680   0.891   4.237   4.255  0.3836 -0.5912 -0.2153
 2182SOL    HW1 6681   0.888   4.310   4.193 -0.0493 -1.2691 -1.0156
 2182SOL    HW2 6682   0.864   4.276   4.338 -0.6640  0.0073 -0.8001
 2183SOL     OW 6683   2.176   4.524   3.372  0.3356  0.3082  0.2400
 2183SOL    HW1 6684   2.171   4.453   3.435 -0.8677 -0.6651 -0.8735
 2183SOL    HW2 6685   2.223   4.594   3.417 -0.4354 -0.3530  2.1737
 2184SOL     OW 6686   1.219   3.176   4.085  0.4068  0.1164 -0.0466
 2184SOL    HW1 6687   1.131   3.139   4.078  0.4578  0.2680 -1.8887
 2184SOL    HW2 6688   1.215   3.256   4.033  1.7622 -0.1158 -0.5348
 2185SOL     OW 6689   4.822   0.187   0.937  0.1677 -0.0533  0.4429
 2185SOL    HW1 6690   4.738   0.191   0.983 -0.0334 -0.0630  0.0823
 2185SOL    HW2 6691   4.813   0.248   0.864  1.1591  1.3737  1.4739
 2186SOL     OW 6692   2.975   2.176   0.847  0.1256 -0.4377  0.8921
 2186SOL    HW1 6693   3.032   2.102   0.827 -0.9153 -1.0839  0.2349
 2186SOL    HW2 6694   2.966   2.223   0.763 -1.3593 -1.1068  0.6400
 2187SOL     OW 6695   4.569   0.578   0.762  0.9147 -0.2447 -0.4423
 2187SOL    HW1 6696   4.482   0.540   0.778 -0.7360  1.8788 -3.2869
 2187SOL    HW2 6697   4.627   0.502   0.752 -0.5314 -1.7322  1.6557
 2188SOL     OW 6698   0.244   2.574   4.294  0.3278  0.0510  0.2463
 2188SOL    HW1 6699   0.224   2.632   4.221 -1.2354 -1.3310 -0.4746
 2188SOL    HW2 6700   0.313   2.517   4.261  0.3667  0.1127  0.2206
 2189SOL     OW 6701   1.221   3.202   0.653  0.0826  0.6671  0.1926
 2189SOL    HW1 6702   1.182   3.163   0.731  0.0598 -0.6243 -0.4380
 2189SOL    HW2 6703   1.313   3.218   0.677 -0.0456  0.7493  0.6352
 2190SOL     OW 6704   0.796   3.696  -0.019 -0.1366 -0.0082  0.5627
 2190SOL    HW1 6705   0.821   3.763   0.045 -0.3921 -0.7926  1.5140
 2190SOL    HW2 6706   0.728   3.646   0.025 -1.0485  0.0606 -0.7369
 2191SOL     OW 6707   0.928   1.200   2.036  0.0023  0.3826 -0.5308
 2191SOL    HW1 6708   0.914   1.281   1.987  1.3972 -0.1102 -1.7984
 2191SOL    HW2 6709   1.019   1.204   2.064  0.3126 -1.0744 -1.2533
 2192SOL     OW 6710   2.165   4.408   1.209  0.0445  0.5089  0.1332
 2192SOL    HW1 6711   2.142   4.390   1.118  1.3223  1.5262 -0.4269
 2192SOL    HW2 6712   2.245   4.357   1.224 -1.7863 -2.1638  1.7209
 2193SOL     OW 6713   2.728   1.793   0.972  0.3833 -0.0923  0.3996
 2193SOL    HW1 6714   2.687   1.878   0.987  0.1344 -0.0117 -0.6361
 2193SOL    HW2 6715   2.663   1.730   1.002  0.7979  0.0702  1.7103
 2194SOL     OW 6716   2.796   2.015   2.926 -0.4539  0.5832  0.2061
 2194SOL    HW1 6717   2.783   2.110   2.924  1.7419  0.9871 -3.5678
 2194SOL    HW2 6718   2.707   1.979   2.920 -1.2323  2.4628 -0.1785
 2195SOL     OW 6719   3.810   3.247   3.354  0.9907 -0.3786  0.0392
 2195SOL    HW1 6720   3.783   3.263   3.445  0.8835  0.0598 -0.0661
 2195SOL    HW2 6721   3.804   3.152   3.343 -0.6701 -0.2937 -0.0301
 2196SOL     OW 6722   1.274   3.351   3.102 -0.0443  0.2306  0.0956
 2196SOL    HW1 6723   1.247   3.267   3.140 -0.6935 -0.3790 -1.5972
 2196SOL    HW2 6724   1.333   3.389   3.166 -1.6204 -0.4041  2.0072
 2197SOL     OW 6725   3.177   0.910   1.956  0.1826  0.6383 -0.0551
 2197SOL    HW1 6726   3.173   0.988   2.010 -1.1128 -1.0708  2.5696
 2197SOL    HW2 6727   3.254   0.863   1.988  0.4743  0.4627 -1.0125
 2198SOL     OW 6728   0.243   4.276   4.081  0.1957  0.5569 -0.0202
 2198SOL    HW1 6729   0.212   4.308   4.166 -2.6157 -0.8612 -0.3772
 2198SOL    HW2 6730   0.174   4.301   4.020  1.8869  1.0331 -1.8474
 2199SOL     OW 6731   3.672   3.792   0.322  0.2335 -0.7118  0.4884
 2199SOL    HW1 6732   3.580   3.816   0.315 -0.3306 -2.2624  1.8618
 2199SOL    HW2 6733   3.718   3.875   0.333 -1.0422  0.0516  0.2839
 2200SOL     OW 6734   0.329   3.392   0.698  0.0034  0.8714  0.5184
 2200SOL    HW1 6735   0.393   3.343   0.749  0.6739  0.8516 -0.2991
 2200SOL    HW2 6736   0.273   3.434   0.763  0.2300  0.0859  1.2418
 2201SOL     OW 6737   2.052   1.594   1.980  0.1096  0.2420 -0.7323
 2201SOL    HW1 6738   2.084   1.681   2.002 -0.6810  1.0331 -2.4696
 2201SOL    HW2 6739   2.130   1.539   1.979  0.5705  0.8168  0.7553
 2202SOL     OW 6740   0.158   2.251   1.927  0.0363  0.4786  0.4516
 2202SOL    HW1 6741   0.204   2.282   1.849 -1.1300  2.1261  0.3765
 2202SOL    HW2 6742   0.218   2.270   2.000  1.2037 -1.2254 -0.0044
 2203SOL     OW 6743   4.754   4.291   3.896 -0.1227 -0.2444 -0.5111
 2203SOL    HW1 6744   4.742   4.198   3.917  2.7957 -0.2265  1.9451
 2203SOL    HW2 6745   4.823   4.320   3.956  2.2153  2.4349 -4.0859
 2204SOL     OW 6746   4.192   2.772   4.438  0.1160 -0.0146  0.8637
 2204SOL    HW1 6747   4.177   2.683   4.468 -1.3355  0.5063  1.8007
 2204SOL    HW2 6748   4.260   2.764   4.371 -0.7330 -1.9461  0.1609
 2205SOL     OW 6749   4.773   3.931   0.921  0.0726 -0.3309 -0.3731
 2205SOL    HW1 6750   4.730   3.989   0.859  0.1480  0.3203  0.1658
 2205SOL    HW2 6751   4.703   3.877   0.957 -0.3629  0.8850  0.6760
 2206SOL     OW 6752   0.685   1.515   1.664 -0.4935  0.2469 -0.0779
 2206SOL    HW1 6753   0.666   1.467   1.584 -0.6724  1.7075 -0.9539
 2206SOL    HW2 6754   0.706   1.448   1.728 -1.7428 -1.0449 -0.9600
 2207SOL     OW 6755   1.473   4.020   2.891 -0.3664  1.1451  0.3034
 2207SOL    HW1 6756   1.526   4.095   2.917  1.3243  0.5352 -1.1824
 2207SOL    HW2 6757   1.535   3.948   2.879 -1.7575 -0.1166  0.2891
 2208SOL     OW 6758   0.021   4.396   3.983 -0.2911 -0.4404 -0.7291
 2208SOL    HW1 6759   0.002   4.490   3.984 -0.4250 -0.4692  0.1777
 2208SOL    HW2 6760   0.044   4.377   3.892  2.4250  1.0354 -0.4619
 2209SOL     OW 6761   1.269   3.523   4.255  0.0351 -0.0507  0.0873
 2209SOL    HW1 6762   1.247   3.515   4.162 -2.0563 -1.8551  0.6437
 2209SOL    HW2 6763   1.242   3.611   4.279  0.8101  0.5140 -1.0502
 2210SOL     OW 6764   4.480   0.258   4.468 -0.3861 -0.6550 -0.5992
 2210SOL    HW1 6765   4.416   0.326   4.490 -1.8164 -1.7877 -1.1106
 2210SOL    HW2 6766   4.438   0.176   4.493  0.9783 -1.4187 -0.7224
 2211SOL     OW 6767   1.094   1.312   0.530 -0.2106 -0.1309  0.3701
 2211SOL    HW1 6768   1.003   1.292   0.511 -0.6129  2.5068 -0.8644
 2211SOL    HW2 6769   1.143   1.271   0.458 -0.1504 -2.7874  1.7766
 2212SOL     OW 6770   2.053   1.900   3.362  0.1671 -0.0969  0.7469
 2212SOL    HW1 6771   2.052   1.862   3.450 -0.8461 -1.0329  0.3487
 2212SOL    HW2 6772   2.091   1.831   3.307  0.7980  0.4852  0.4409
 2213SOL     OW 6773   0.280   4.617   2.037 -0.5179 -0.1798  0.2450
 2213SOL    HW1 6774   0.226   4.575   2.104  0.1733 -0.3335  0.7274
 2213SOL    HW2 6775   0.370   4.593   2.062 -0.0721  1.8428  0.7136
 2214SOL     OW 6776   2.125   3.851   3.185 -0.5189  0.4681  0.2983
 2214SOL    HW1 6777   2.197   3.812   3.136  0.3973 -0.0007  1.9226
 2214SOL    HW2 6778   2.083   3.777   3.229 -0.1351  1.0251  1.6657
 2215SOL     OW 6779   1.996   4.292   4.294 -0.3093  0.0295 -0.3375
 2215SOL    HW1 6780   2.029   4.382   4.292 -0.3254  0.1411  1.7983
 2215SOL    HW2 6781   1.902   4.302   4.279  0.0401  0.0539 -2.8638
 2216SOL     OW 6782   0.579   0.692   2.980  0.1594 -0.7750  0.7156
 2216SOL    HW1 6783   0.506   0.733   3.027 -0.7930 -1.0715 -0.4623
 2216SOL    HW2 6784   0.537   0.631   2.919  1.3433 -0.3330 -0.5812
 2217SOL     OW 6785   0.752   4.904   4.821  0.8099 -0.2342  0.0915
 2217SOL    HW1 6786   0.721   4.933   4.735 -1.9174  3.0748  1.9380
 2217SOL    HW2 6787   0.824   4.964   4.841  0.7825 -0.3481  0.5245
 2218SOL     OW 6788   2.029   3.436   4.196 -0.1760  0.8361 -0.2967
 2218SOL    HW1 6789   1.971   3.468   4.127  1.8048  1.6077 -1.7154
 2218SOL    HW2 6790   2.076   3.514   4.226  0.8519  0.1004  0.0720
 2219SOL     OW 6791   2.259   1.789   3.880 -0.2852  0.1507  0.6935
 2219SOL    HW1 6792   2.193   1.723   3.900  0.9016 -1.1352  0.4810
 2219SOL    HW2 6793   2.318   1.789   3.955  0.2829  0.2636  0.2533
 2220SOL     OW 6794   2.963   0.735   1.993 -0.5637 -0.6977  0.3765
 2220SOL    HW1 6795   2.887   0.783   2.026  0.6106  0.6471  1.2704
 2220SOL    HW2 6796   3.034   0.800   1.994 -0.1938 -0.7701 -4.1006
 2221SOL     OW 6797   0.568   0.822   0.119 -0.0988  0.2533 -0.4512
 2221SOL    HW1 6798   0.558   0.738   0.075  2.2877 -1.8424  2.6170
 2221SOL    HW2 6799   0.623   0.874   0.060  1.6228 -1.8048 -0.7505
 2222SOL     OW 6800   4.590   2.947   1.979  0.5085 -0.4759  0.2058
 2222SOL    HW1 6801   4.638   2.882   1.927  1.2965  1.1620 -1.2240
 2222SOL    HW2 6802   4.628   2.940   2.066  2.3320 -0.3214 -0.5085
 2223SOL     OW 6803   0.722   4.586   3.896 -0.3517  0.5471 -0.0678
 2223SOL    HW1 6804   0.667   4.541   3.832  1.4374 -0.8806 -0.6688
 2223SOL    HW2 6805   0.727   4.526   3.971  0.3384  0.6799 -0.0019
 2224SOL     OW 6806   1.206   0.034   3.209  0.1803  0.4184 -0.0718
 2224SOL    HW1 6807   1.292  -0.006   3.198  0.9960  1.8866  0.5658
 2224SOL    HW2 6808   1.215   0.089   3.287 -0.9872  1.4559 -0.6195
 2225SOL     OW 6809   2.631  -0.022   4.943 -0.0886  0.1133 -0.4897
 2225SOL    HW1 6810   2.713   0.019   4.914 -0.0793 -1.7493 -3.4913
 2225SOL    HW2 6811   2.563   0.032   4.903 -0.2209 -0.0612 -0.4993
 2226SOL     OW 6812   3.022   2.603   0.138 -0.0363 -0.2734  0.5949
 2226SOL    HW1 6813   3.064   2.637   0.059 -2.4960 -3.1613 -2.2740
 2226SOL    HW2 6814   3.065   2.519   0.154 -0.7338 -0.5191  1.2146
 2227SOL     OW 6815   2.219   3.326   3.152  0.2428 -0.2653  0.0949
 2227SOL    HW1 6816   2.175   3.314   3.237  1.2051 -1.6518  0.4392
 2227SOL    HW2 6817   2.302   3.369   3.174 -0.1919  0.8076 -0.3442
 2228SOL     OW 6818   1.853   1.815   2.032  0.7616  0.1703  0.2045
 2228SOL    HW1 6819   1.790   1.883   2.056  1.4056  0.6724  0.4811
 2228SOL    HW2 6820   1.869   1.767   2.113 -1.3281 -1.7339 -0.3966
 2229SOL     OW 6821   0.588   1.590   3.360  0.5990  0.7753 -0.2135
 2229SOL    HW1 6822   0.581   1.495   3.372 -0.8453  0.8753 -0.0557
 2229SOL    HW2 6823   0.677   1.611   3.388  1.7722 -0.8277 -2.4407
 2230SOL     OW 6824   3.094   4.462   1.148 -0.0099 -0.1387 -0.1584
 2230SOL    HW1 6825   3.054   4.467   1.061  1.2187  2.1516 -0.6824
 2230SOL    HW2 6826   3.101   4.368   1.166 -1.8212 -0.6427 -1.7852
 2231SOL     OW 6827   3.638   2.918   1.792  0.0624 -0.1848  0.2782
 2231SOL    HW1 6828   3.641   2.857   1.866  1.2429 -1.4305 -0.7294
 2231SOL    HW2 6829   3.560   2.890   1.743  0.4927 -0.7785 -0.0796
 2232SOL     OW 6830   2.981   1.160   0.517  0.5630  0.6687  0.1493
 2232SOL    HW1 6831   2.901   1.133   0.471 -0.2736  1.0985  1.2838
 2232SOL    HW2 6832   3.019   1.228   0.461  0.7316 -0.2931 -0.9399
 2233SOL     OW 6833   0.171   3.074   2.059 -0.0827  0.0974  0.7171
 2233SOL    HW1 6834   0.112   2.999   2.059  0.8639 -0.6621  1.3554
 2233SOL    HW2 6835   0.140   3.128   2.131 -1.2853  0.7737 -0.2601
 2234SOL     OW 6836   4.930   0.153   4.028  0.5103 -0.2525 -0.3933
 2234SOL    HW1 6837   5.010   0.104   4.048 -0.1818 -0.5760  1.8949
 2234SOL    HW2 6838   4.865   0.120   4.091 -0.9341  1.2166 -1.0354
 2235SOL     OW 6839   0.075   2.860   3.401  0.1502  0.6274 -0.2225
 2235SOL    HW1 6840   0.046   2.783   3.352 -2.2967  0.2062  1.6841
 2235SOL    HW2 6841   0.071   2.833   3.493 -0.1633  2.8032  0.4626
 2236SOL     OW 6842   2.668   1.454   4.217 -0.5828 -0.0686  0.0672
 2236SOL    HW1 6843   2.724   1.450   4.294  0.1048 -0.1309 -0.4317
 2236SOL    HW2 6844   2.603   1.385   4.231  0.3841 -1.0232 -0.0707
 2237SOL     OW 6845   1.564   4.201   1.537  0.3664  0.0923  0.0264
 2237SOL    HW1 6846   1.524   4.210   1.451  1.3656 -0.7671 -0.5496
 2237SOL    HW2 6847   1.506   4.142   1.585  0.8506 -1.0717 -0.7697
 2238SOL     OW 6848   1.395   0.648   0.281 -0.1671  0.8945 -0.4124
 2238SOL    HW1 6849   1.325   0.587   0.304  1.6929 -2.0759 -1.9355
 2238SOL    HW2 6850   1.356   0.707   0.217 -0.9986 -1.7739 -2.5607
 2239SOL     OW 6851   4.953   3.098   4.345 -0.8408 -0.0437 -0.4061
 2239SOL    HW1 6852   4.896   3.068   4.274 -0.1614  0.0274 -0.9972
 2239SOL    HW2 6853   4.991   3.180   4.313  0.3685 -0.6059 -0.4536
 2240SOL     OW 6854   4.524   3.825   1.442 -0.0657  0.3400  0.1684
 2240SOL    HW1 6855   4.450   3.876   1.409  0.0050  0.1857 -0.2312
 2240SOL    HW2 6856   4.507   3.736   1.411 -0.3074  0.0642  1.0527
 2241SOL     OW 6857   3.897   1.172   2.725 -0.4453  0.7744 -0.3869
 2241SOL    HW1 6858   3.937   1.092   2.760 -0.2059  1.4163  0.8404
 2241SOL    HW2 6859   3.948   1.192   2.647 -0.3609 -0.1426 -0.5815
 2242SOL     OW 6860   2.290   1.393   0.800  0.1102 -0.1425 -0.0390
 2242SOL    HW1 6861   2.252   1.307   0.818 -0.4057 -0.1481 -1.1053
 2242SOL    HW2 6862   2.298   1.434   0.887 -0.3152 -0.9764  0.4070
 2243SOL     OW 6863   3.044   1.766   1.305 -0.7109 -1.0573 -0.5034
 2243SOL    HW1 6864   3.074   1.680   1.337  2.2322  0.7832  2.3946
 2243SOL    HW2 6865   3.117   1.797   1.251 -0.2807  0.7744  1.0242
 2244SOL     OW 6866   3.128   3.373   0.090 -0.0814 -0.3885 -0.5747
 2244SOL    HW1 6867   3.189   3.418   0.031  0.3404  0.9349  0.8183
 2244SOL    HW2 6868   3.066   3.441   0.117 -2.2988 -1.7106 -2.0086
 2245SOL     OW 6869   1.102   1.349   1.689  0.6359  0.8316 -0.2099
 2245SOL    HW1 6870   1.194   1.370   1.673  0.8654 -1.3965 -2.5961
 2245SOL    HW2 6871   1.054   1.394   1.619  0.2529 -0.1694 -0.6076
 2246SOL     OW 6872   3.124   4.237   3.454  0.3114 -0.2523  0.6224
 2246SOL    HW1 6873   3.132   4.293   3.377 -2.1528 -0.1350  0.3895
 2246SOL    HW2 6874   3.135   4.148   3.421 -1.6269 -0.2715 -0.0967
 2247SOL     OW 6875   0.724   2.669   2.348 -0.1037 -0.3887 -0.5262
 2247SOL    HW1 6876   0.676   2.720   2.283 -0.3749  0.9239  0.6325
 2247SOL    HW2 6877   0.689   2.581   2.341 -1.8825  0.2674 -0.5276
 2248SOL     OW 6878   4.824   0.774   2.311 -0.1510  0.1709  0.0669
 2248SOL    HW1 6879   4.893   0.738   2.255 -0.7662  1.2931 -1.5005
 2248SOL    HW2 6880   4.855   0.759   2.400  1.4433 -0.6026 -0.5672
 2249SOL     OW 6881   4.269   0.739   0.196  0.0299 -0.0676 -0.1485
 2249SOL    HW1 6882   4.289   0.648   0.218  0.6572  0.3940  1.2929
 2249SOL    HW2 6883   4.327   0.760   0.123  2.0505  0.0388  1.4150
 2250SOL     OW 6884   3.267   3.785   1.639 -0.5916  0.8514 -0.1203
 2250SOL    HW1 6885   3.182   3.818   1.609 -1.0030 -0.5462 -0.5615
 2250SOL    HW2 6886   3.246   3.719   1.704  0.2114  1.3933  0.7071
 2251SOL     OW 6887   2.156   1.805   0.067 -0.6615 -0.0861 -0.3184
 2251SOL    HW1 6888   2.221   1.814  -0.003  0.6799 -0.2755  0.8451
 2251SOL    HW2 6889   2.201   1.838   0.145 -1.4940 -1.4654  0.7923
 2252SOL     OW 6890   1.114   4.199   1.625 -0.0658  0.1640 -0.1883
 2252SOL    HW1 6891   1.040   4.144   1.650  0.9271 -0.6219  1.2427
 2252SOL    HW2 6892   1.075   4.278   1.587 -1.5557 -1.4143 -2.1666
 2253SOL     OW 6893   4.559   0.814   2.360  0.1164  0.0147  0.3390
 2253SOL    HW1 6894   4.566   0.899   2.404 -1.1330 -0.0629  0.7437
 2253SOL    HW2 6895   4.648   0.793   2.334  0.1660  2.6103 -2.0387
 2254SOL     OW 6896   4.735   3.897   0.330  0.3708 -0.1467 -0.4035
 2254SOL    HW1 6897   4.770   3.812   0.358  0.4835  0.0159 -0.0429
 2254SOL    HW2 6898   4.643   3.881   0.314  0.1683 -0.1160  0.6431
 2255SOL     OW 6899   1.161   2.832   2.834 -0.4895 -0.5376  0.6694
 2255SOL    HW1 6900   1.222   2.894   2.873 -0.9577 -0.7467  1.7636
 2255SOL    HW2 6901   1.091   2.822   2.898 -0.5995 -1.9364  0.3832
 2256SOL     OW 6902   0.300   2.736   2.071  0.5905 -0.0728 -0.4166
 2256SOL    HW1 6903   0.269   2.778   2.151  0.6515 -0.9870  0.0978
 2256SOL    HW2 6904   0.237   2.763   2.004  0.0435 -0.0007  0.1181
 2257SOL     OW 6905   0.445   1.022   1.763 -0.6993  0.0540  0.7629
 2257SOL    HW1 6906   0.371   1.081   1.779 -2.7580 -1.6035 -1.7689
 2257SOL    HW2 6907   0.416   0.937   1.793  1.1661 -0.2473  1.8772
 2258SOL     OW 6908   0.080   0.399   3.894 -0.2622 -0.3507 -0.4656
 2258SOL    HW1 6909   0.146   0.332   3.880  0.3930  0.1803  0.0059
 2258SOL    HW2 6910   0.005   0.370   3.842 -0.1474 -1.6518  0.0568
 2259SOL     OW 6911   0.440   1.353   2.587 -0.1645 -0.1717  0.2756
 2259SOL    HW1 6912   0.489   1.286   2.540  1.7468  0.7861  0.7903
 2259SOL    HW2 6913   0.355   1.356   2.544 -0.0992 -2.4840 -0.1378
 2260SOL     OW 6914   3.155   2.455   3.905 -0.5426  0.1925 -0.4506
 2260SOL    HW1 6915   3.129   2.402   3.830  2.2941 -1.8005 -0.1958
 2260SOL    HW2 6916   3.109   2.416   3.979  1.5381 -2.1649 -0.2599
 2261SOL     OW 6917   3.510   2.524   4.060  0.5768 -0.2097 -0.5305
 2261SOL    HW1 6918   3.453   2.448   4.063 -2.0349  1.5515 -1.6972
 2261SOL    HW2 6919   3.475   2.578   3.989  4.6093  0.4230 -2.3027
 2262SOL     OW 6920   1.141   4.826   4.332 -0.2851  0.1265 -0.5202
 2262SOL    HW1 6921   1.052   4.843   4.299  0.2908 -1.6401 -3.2688
 2262SOL    HW2 6922   1.186   4.910   4.325 -1.0051  0.4357 -1.6121
 2263SOL     OW 6923   4.318   1.147   3.736  0.7292 -0.4763 -0.4491
 2263SOL    HW1 6924   4.319   1.242   3.740 -1.6139 -0.4345  0.5763
 2263SOL    HW2 6925   4.337   1.118   3.825 -0.8291 -0.8685 -0.2092
 2264SOL     OW 6926   2.685   1.456   0.911  0.6926 -0.1928  0.5179
 2264SOL    HW1 6927   2.671   1.488   1.001  0.7290 -0.4340  0.6106
 2264SOL    HW2 6928   2.672   1.533   0.856 -2.2111 -0.5892  0.4775
 2265SOL     OW 6929   0.620   3.287   2.618 -0.4070  0.1166 -0.3727
 2265SOL    HW1 6930   0.529   3.273   2.593 -0.4545  0.3564 -0.3424
 2265SOL    HW2 6931   0.654   3.199   2.635 -1.8645  0.1088  3.8912
 2266SOL     OW 6932   1.284   0.847   0.128 -0.2134 -0.0237  0.0260
 2266SOL    HW1 6933   1.329   0.930   0.113 -0.3545  0.3366  1.4812
 2266SOL    HW2 6934   1.214   0.845   0.062 -1.2332  1.7933  1.0004
 2267SOL     OW 6935   4.348   0.659   0.951  0.4654 -0.0762  0.5460
 2267SOL    HW1 6936   4.353   0.748   0.985 -1.2954  0.3698 -0.2448
 2267SOL    HW2 6937   4.366   0.603   1.026  0.6031  0.9288  1.2762
 2268SOL     OW 6938   0.768   1.366   4.182 -0.2798 -0.6344 -0.2247
 2268SOL    HW1 6939   0.811   1.389   4.264  1.2214 -2.5083 -0.4037
 2268SOL    HW2 6940   0.833   1.388   4.115 -0.4159 -1.5456 -0.6757
 2269SOL     OW 6941   1.026   4.443   0.380 -0.5561 -0.4296  0.4744
 2269SOL    HW1 6942   1.047   4.469   0.470 -1.3386 -0.4384  0.6667
 2269SOL    HW2 6943   0.931   4.452   0.374 -0.4550  0.0306 -0.5065
 2270SOL     OW 6944   0.042   0.849   1.170 -0.2283 -0.0060 -0.3775
 2270SOL    HW1 6945   0.115   0.889   1.124 -0.5096 -0.1088 -0.9234
 2270SOL    HW2 6946  -0.028   0.844   1.105 -1.1675  1.2721  0.4622
 2271SOL     OW 6947   4.411   2.686   4.610 -0.8641 -0.6034  0.2754
 2271SOL    HW1 6948   4.418   2.778   4.586  0.5278 -0.1485  2.1929
 2271SOL    HW2 6949   4.331   2.680   4.662  0.8585  0.3830  3.2815
 2272SOL     OW 6950   3.250   3.328   3.002 -0.2498  0.1220  0.6440
 2272SOL    HW1 6951   3.282   3.332   3.092 -2.6884  1.4693  1.5391
 2272SOL    HW2 6952   3.314   3.378   2.952  1.0130 -0.4412  1.6253
 2273SOL     OW 6953   3.712   0.445   0.333  0.9788  0.2081 -0.1922
 2273SOL    HW1 6954   3.639   0.503   0.312  1.8764  0.8962 -1.5140
 2273SOL    HW2 6955   3.716   0.447   0.429 -0.5652  0.3403 -0.0943
 2274SOL     OW 6956   1.365   4.906   3.601  0.2113  0.3595 -0.0905
 2274SOL    HW1 6957   1.421   4.847   3.552  0.8709 -0.6105  1.7610
 2274SOL    HW2 6958   1.350   4.862   3.684 -0.8456  1.9550  0.6103
 2275SOL     OW 6959   4.297   0.807   2.440  0.1304  0.7330  0.3171
 2275SOL    HW1 6960   4.300   0.774   2.530  0.2952 -2.5301 -0.7447
 2275SOL    HW2 6961   4.386   0.793   2.406  0.0392  1.7983 -0.4324
 2276SOL     OW 6962   0.609   2.079   1.486 -0.0557  0.0462  0.1952
 2276SOL    HW1 6963   0.681   2.069   1.547 -0.7700  1.7194  1.3950
 2276SOL    HW2 6964   0.531   2.054   1.536 -0.2679 -3.3495 -1.5575
 2277SOL     OW 6965   2.478   2.470   3.094  0.1730  0.4979 -0.3843
 2277SOL    HW1 6966   2.480   2.408   3.166  0.1122 -0.7786 -1.4337
 2277SOL    HW2 6967   2.442   2.550   3.131  0.3911 -0.0445  1.0451
 2278SOL     OW 6968   2.484   3.053   4.921 -0.5173 -0.2277 -0.8084
 2278SOL    HW1 6969   2.432   3.006   4.985 -1.0123 -0.3438 -1.2931
 2278SOL    HW2 6970   2.533   3.117   4.973 -3.5489  2.1518 -0.6096
 2279SOL     OW 6971   2.406   3.340   0.110  0.3896 -0.2941  0.1715
 2279SOL    HW1 6972   2.320   3.379   0.095  0.7820  0.4984 -0.1048
 2279SOL    HW2 6973   2.391   3.272   0.175  0.0073  1.7159  2.3114
 2280SOL     OW 6974   2.954   0.196   2.059 -0.5746 -0.0352 -0.5013
 2280SOL    HW1 6975   2.875   0.200   2.113 -2.0823 -0.8323 -2.5204
 2280SOL    HW2 6976   2.983   0.287   2.052 -2.1309  0.4697 -0.8119
 2281SOL     OW 6977   3.404   2.861   2.574 -0.2037  0.2121  0.0455
 2281SOL    HW1 6978   3.461   2.915   2.629  0.7415 -0.0601 -0.6279
 2281SOL    HW2 6979   3.460   2.835   2.501 -0.8836 -0.9996 -0.0689
 2282SOL     OW 6980   0.354   2.012   0.151  0.3679  0.1773  0.1062
 2282SOL    HW1 6981   0.375   2.066   0.075 -0.0424  2.2136  1.3702
 2282SOL    HW2 6982   0.390   1.925   0.129  1.9933  1.1919 -1.5663
 2283SOL     OW 6983   2.530   4.322   1.681  0.4691  0.2006  0.1460
 2283SOL    HW1 6984   2.590   4.397   1.673  0.8956 -0.2041 -0.5785
 2283SOL    HW2 6985   2.454   4.346   1.629  1.0245 -0.2579 -0.9185
 2284SOL     OW 6986   1.220   4.322   1.095  0.2252 -0.5443  0.4810
 2284SOL    HW1 6987   1.139   4.359   1.131  1.7556  0.3927  3.2698
 2284SOL    HW2 6988   1.225   4.234   1.133 -0.2295 -1.2498 -1.0092
 2285SOL     OW 6989   4.527   4.880   1.578  0.2625 -0.3839  0.5682
 2285SOL    HW1 6990   4.550   4.966   1.542 -1.9694  0.4958  1.0462
 2285SOL    HW2 6991   4.528   4.893   1.673  1.1369 -1.2709  0.6974
 2286SOL     OW 6992   3.834   4.962   1.518 -0.6273  0.1206  0.1705
 2286SOL    HW1 6993   3.834   5.019   1.442 -2.0412 -0.2808 -0.1641
 2286SOL    HW2 6994   3.765   4.898   1.500  1.5686 -2.4188 -0.0026
 2287SOL     OW 6995   3.596   1.457   1.666  0.4548 -0.4088  0.1986
 2287SOL    HW1 6996   3.520   1.483   1.614  0.8241  1.8995  0.7276
 2287SOL    HW2 6997   3.638   1.388   1.614  0.0039  0.8017 -1.8894
 2288SOL     OW 6998   1.246   4.031   2.321  0.3015 -0.0106 -0.1195
 2288SOL    HW1 6999   1.274   3.940   2.334 -1.0797 -0.5604 -0.8514
 2288SOL    HW2 7000   1.285   4.078   2.395  0.3932 -1.3379  0.7144
 2289SOL     OW 7001   4.525   3.192   3.609  0.0029 -0.4962  0.0796
 2289SOL    HW1 7002   4.484   3.126   3.554  1.6619 -1.1660 -0.4194
 2289SOL    HW2 7003   4.522   3.154   3.697  0.6120 -1.0984 -0.1455
 2290SOL     OW 7004   3.183   4.186   1.082  0.5473 -0.1416  0.3533
 2290SOL    HW1 7005   3.227   4.237   1.015 -0.8359  1.9454  0.9144
 2290SOL    HW2 7006   3.197   4.095   1.057  0.9510  0.5391 -2.1676
 2291SOL     OW 7007   0.758   4.474   0.259 -0.1114 -0.1786 -0.8188
 2291SOL    HW1 7008   0.680   4.420   0.243  1.0043 -2.2603  0.3253
 2291SOL    HW2 7009   0.812   4.463   0.181 -1.3081  2.0993 -2.0786
 2292SOL     OW 7010   3.171   1.559   4.077  0.7063  0.2504 -0.8712
 2292SOL    HW1 7011   3.113   1.483   4.069  1.8145 -0.8296  0.7233
 2292SOL    HW2 7012   3.241   1.543   4.014  0.7522  0.1217 -0.7876
 2293SOL     OW 7013   3.398   0.054   0.815 -0.4519  0.0411  0.0257
 2293SOL    HW1 7014   3.488   0.086   0.813  0.0043 -1.2191 -0.3110
 2293SOL    HW2 7015   3.369   0.069   0.905 -0.5417  2.0705 -0.2902
 2294SOL     OW 7016   2.019   2.428   0.600 -0.1136 -0.1987 -0.2088
 2294SOL    HW1 7017   2.072   2.498   0.639 -1.4521  1.8110 -1.8100
 2294SOL    HW2 7018   2.022   2.357   0.665  0.3437  1.7561  2.0447
 2295SOL     OW 7019   3.882   0.040   0.968  0.3149 -0.3594  0.2493
 2295SOL    HW1 7020   3.826  -0.002   1.033 -1.2485  0.9602 -0.1723
 2295SOL    HW2 7021   3.922  -0.032   0.920 -0.9049 -1.3492  0.6678
 2296SOL     OW 7022   0.233   3.777   1.688 -0.5732 -0.9863 -0.1600
 2296SOL    HW1 7023   0.163   3.715   1.670 -0.1928 -1.5274  0.2176
 2296SOL    HW2 7024   0.211   3.813   1.774 -2.2300  1.3827 -1.4308
 2297SOL     OW 7025   0.486   3.926   1.395  0.6955 -0.4554  0.2791
 2297SOL    HW1 7026   0.532   3.992   1.446  2.6133 -0.5385 -1.2377
 2297SOL    HW2 7027   0.496   3.845   1.445 -1.4645  0.2691  2.0269
 2298SOL     OW 7028   4.534   1.988   1.970 -0.0564 -0.4221 -1.0892
 2298SOL    HW1 7029   4.479   1.913   1.951 -1.0683 -0.2212  0.8366
 2298SOL    HW2 7030   4.562   1.975   2.061  1.2067  0.6410 -1.2949
 2299SOL     OW 7031   0.739   4.063   4.096 -0.0472 -0.1873 -0.3912
 2299SOL    HW1 7032   0.790   4.053   4.016 -0.6453  1.1242 -0.9763
 2299SOL    HW2 7033   0.799   4.105   4.157 -0.1445  0.5958 -0.8112
 2300SOL     OW 7034   1.238   3.529   3.682  0.6149 -0.0409  0.2663
 2300SOL    HW1 7035   1.143   3.541   3.695  0.7815 -0.3070  2.0583
 2300SOL    HW2 7036   1.277   3.607   3.721  1.1266  0.6527 -1.5356
 2301SOL     OW 7037   2.369   2.571   2.419 -0.1025 -0.5280  0.4842
 2301SOL    HW1 7038   2.377   2.559   2.325 -1.3164  0.2708  0.2569
 2301SOL    HW2 7039   2.403   2.490   2.456  0.7600 -0.6881 -0.6199
 2302SOL     OW 7040   2.783   2.342   3.529 -0.1682  0.0043 -0.2602
 2302SOL    HW1 7041   2.769   2.318   3.437  2.5920  0.4076 -0.8584
 2302SOL    HW2 7042   2.807   2.260   3.571 -0.3803  0.0150 -0.1163
 2303SOL     OW 7043   4.761   4.141   0.021 -0.2041  0.1447  0.2486
 2303SOL    HW1 7044   4.823   4.114  -0.047 -0.3368 -0.5086  0.3873
 2303SOL    HW2 7045   4.701   4.068   0.030 -1.4739  1.0709 -0.4094
 2304SOL     OW 7046   2.654   0.800   3.301 -0.6921  0.2250  0.5525
 2304SOL    HW1 7047   2.571   0.813   3.347 -1.0309  1.6299 -0.3830
 2304SOL    HW2 7048   2.678   0.887   3.271 -0.9690 -0.6884 -2.6852
 2305SOL     OW 7049   2.508   4.495   0.381 -0.0865  0.4270  0.8473
 2305SOL    HW1 7050   2.504   4.400   0.378  1.5832  0.3100  1.0981
 2305SOL    HW2 7051   2.480   4.523   0.294 -0.1504 -0.3150  0.6226
 2306SOL     OW 7052   2.377   1.008   0.860  0.1172 -0.4665  0.1140
 2306SOL    HW1 7053   2.305   1.071   0.859  2.2623  2.3626 -3.3020
 2306SOL    HW2 7054   2.345   0.933   0.810 -0.6803  0.5504 -0.9532
 2307SOL     OW 7055   4.248   4.767   1.109 -0.0640  0.3020  0.2816
 2307SOL    HW1 7056   4.222   4.676   1.121 -0.8222 -0.1725 -3.6895
 2307SOL    HW2 7057   4.192   4.816   1.169 -1.5523 -1.6410  0.5564
 2308SOL     OW 7058   1.114   1.163   2.859  0.5793  0.1926 -0.3756
 2308SOL    HW1 7059   1.046   1.184   2.794  1.6234 -0.5191 -1.7553
 2308SOL    HW2 7060   1.135   1.247   2.899 -0.6030  0.5340 -0.4352
 2309SOL     OW 7061   3.729   4.891   1.110  0.2638 -0.2814  0.1551
 2309SOL    HW1 7062   3.722   4.799   1.133  0.5694  0.2187  2.4274
 2309SOL    HW2 7063   3.659   4.934   1.158  1.4262  0.9358  0.8315
 2310SOL     OW 7064   0.472   1.314   3.513  0.1156  0.2849  0.3114
 2310SOL    HW1 7065   0.449   1.239   3.567 -3.7558  0.4596 -0.8214
 2310SOL    HW2 7066   0.505   1.276   3.432  1.1562 -0.0758  0.8860
 2311SOL     OW 7067   0.080   0.412   1.608 -0.0523  0.3339  0.1321
 2311SOL    HW1 7068   0.087   0.502   1.575 -0.5555  0.1199 -0.5595
 2311SOL    HW2 7069   0.159   0.369   1.576  0.7942  0.8229  1.4496
 2312SOL     OW 7070   4.606   3.487   3.882  0.2601 -0.7285 -0.5001
 2312SOL    HW1 7071   4.655   3.434   3.819  0.5606  0.6486 -1.4680
 2312SOL    HW2 7072   4.520   3.446   3.886  1.1414 -2.6192  0.5063
 2313SOL     OW 7073   0.374   0.908   4.456  0.2930  0.0560  0.0814
 2313SOL    HW1 7074   0.420   0.876   4.379  1.3333  1.5183  0.0618
 2313SOL    HW2 7075   0.357   0.829   4.508  1.2749 -0.7213 -0.7327
 2314SOL     OW 7076   2.071   2.085   2.432  0.1661 -0.4943  0.3142
 2314SOL    HW1 7077   2.132   2.120   2.497 -1.8302  1.0613  1.4792
 2314SOL    HW2 7078   2.046   2.160   2.379 -1.7671 -0.7368  0.7808
 2315SOL     OW 7079   2.086   0.818   0.194  0.0235  0.4142  0.1295
 2315SOL    HW1 7080   2.162   0.846   0.143 -0.1636 -0.7493 -0.8498
 2315SOL    HW2 7081   2.011   0.840   0.139 -0.2727  0.4378  0.5421
 2316SOL     OW 7082   0.072   4.257   4.351 -0.0126 -0.4660  0.2959
 2316SOL    HW1 7083   0.056   4.165   4.372  0.5250 -0.6037  0.1304
 2316SOL    HW2 7084   0.116   4.292   4.428 -0.5423 -0.2527  0.5029
 2317SOL     OW 7085   2.238   1.731   2.525  0.3472 -0.0543 -0.2436
 2317SOL    HW1 7086   2.327   1.732   2.561 -0.3436 -0.7657  1.5666
 2317SOL    HW2 7087   2.190   1.794   2.578 -0.3543 -0.0460 -0.8802
 2318SOL     OW 7088   4.515   1.600   1.700 -0.1491 -0.4178  0.3746
 2318SOL    HW1 7089   4.438   1.564   1.743 -0.6150  0.0679 -0.0514
 2318SOL    HW2 7090   4.514   1.562   1.612 -0.7525  0.7608 -0.1491
 2319SOL     OW 7091   2.947   1.725   4.240  0.8905  0.1849 -0.0010
 2319SOL    HW1 7092   2.898   1.741   4.321  0.5158 -0.3646 -0.1195
 2319SOL    HW2 7093   2.905   1.650   4.200  1.3351  0.1974 -0.5076
 2320SOL     OW 7094   3.418   1.353   0.097  0.2304  0.0862 -0.3810
 2320SOL    HW1 7095   3.413   1.443   0.129 -2.0920  0.7208 -2.1878
 2320SOL    HW2 7096   3.512   1.334   0.092  0.8205  2.6929 -0.6475
 2321SOL     OW 7097   0.754   1.693   3.070 -0.8625  0.0794  1.1783
 2321SOL    HW1 7098   0.782   1.672   3.159 -0.0729 -1.0144  0.6954
 2321SOL    HW2 7099   0.805   1.770   3.046  0.6705 -0.9891  0.8679
 2322SOL     OW 7100   1.738   3.895   3.704  0.4277  0.0095  0.9470
 2322SOL    HW1 7101   1.735   3.860   3.793  2.7140 -3.5331 -0.1759
 2322SOL    HW2 7102   1.707   3.823   3.649  0.7016  1.4793 -1.2484
 2323SOL     OW 7103   1.544   2.204   0.138 -0.1900  0.2172  0.2441
 2323SOL    HW1 7104   1.639   2.210   0.150 -0.1555  1.5357 -0.4980
 2323SOL    HW2 7105   1.510   2.181   0.225  0.8677 -1.4161  0.2751
 2324SOL     OW 7106   2.397   3.099   0.817 -0.2312 -0.4117 -0.3468
 2324SOL    HW1 7107   2.410   3.179   0.869 -0.8843 -0.7426  0.3391
 2324SOL    HW2 7108   2.359   3.130   0.735  0.7388  0.1103 -0.6146
 2325SOL     OW 7109   4.493   4.951   1.031  0.1341  0.2168 -0.4233
 2325SOL    HW1 7110   4.574   4.905   1.052  0.1244 -1.7482 -4.0397
 2325SOL    HW2 7111   4.423   4.890   1.056 -0.1428  0.6832 -0.0270
 2326SOL     OW 7112   0.808   4.250   4.531  0.0838  0.3654  0.5513
 2326SOL    HW1 7113   0.742   4.318   4.517 -0.0759 -0.1950 -1.7570
 2326SOL    HW2 7114   0.767   4.169   4.501  1.3707 -0.2176  0.2863
 2327SOL     OW 7115   0.373   4.077   3.789  0.3370  0.1121  0.0619
 2327SOL    HW1 7116   0.425   4.095   3.867  1.4435 -1.4913 -0.2773
 2327SOL    HW2 7117   0.296   4.031   3.822 -0.2777  1.3287  0.4102
 2328SOL     OW 7118   0.909   3.940   1.060 -0.0192 -0.0568 -0.6677
 2328SOL    HW1 7119   0.909   4.013   0.998 -1.2649  1.1616  0.6522
 2328SOL    HW2 7120   0.830   3.954   1.113 -0.5975 -2.6944 -0.6950
 2329SOL     OW 7121   4.579   3.613   3.253 -0.7292 -0.2452  0.0120
 2329SOL    HW1 7122   4.613   3.524   3.261 -1.7333 -0.5269  1.5409
 2329SOL    HW2 7123   4.634   3.666   3.311  0.5106  0.3759 -1.6443
 2330SOL     OW 7124   0.920   3.825   0.778 -0.0090 -0.9075 -0.5501
 2330SOL    HW1 7125   0.922   3.733   0.807 -1.4847 -0.6544  0.4588
 2330SOL    HW2 7126   0.971   3.872   0.844 -0.4616 -0.8101 -0.2665
 2331SOL     OW 7127   1.364   4.066   1.640  0.2964 -0.5820 -0.0164
 2331SOL    HW1 7128   1.304   4.133   1.672  1.7498  1.0536 -0.5769
 2331SOL    HW2 7129   1.348   3.990   1.697 -1.0796  0.3616  0.9174
 2332SOL     OW 7130   3.929   3.209   2.915 -0.1219 -0.0881 -0.1539
 2332SOL    HW1 7131   3.964   3.265   2.984 -2.9017  0.7976  0.6680
 2332SOL    HW2 7132   3.911   3.126   2.959  0.2246 -0.2744 -0.3670
 2333SOL     OW 7133   3.697   2.252   3.795 -0.3708 -0.3586 -0.8553
 2333SOL    HW1 7134   3.703   2.291   3.882  2.6198 -0.0667 -1.1040
 2333SOL    HW2 7135   3.650   2.170   3.809  2.9258 -2.0310  1.7642
 2334SOL     OW 7136   2.028   0.575   0.275 -0.0780 -0.1293  0.6103
 2334SOL    HW1 7137   1.945   0.584   0.228  0.3359 -1.0685 -0.3411
 2334SOL    HW2 7138   2.073   0.658   0.261 -0.3251 -0.0881  0.0358
 2335SOL     OW 7139   1.763   0.374   4.579 -0.0657  0.1078  0.3902
 2335SOL    HW1 7140   1.673   0.349   4.557 -0.1120  1.0820 -0.5740
 2335SOL    HW2 7141   1.764   0.469   4.571  0.1919  0.5004  3.6504
 2336SOL     OW 7142   2.217   0.100   0.588 -0.4150  0.1917 -0.4914
 2336SOL    HW1 7143   2.249   0.188   0.566  0.4698  0.0281  0.0849
 2336SOL    HW2 7144   2.188   0.064   0.504 -0.7523  1.0160 -0.7427
 2337SOL     OW 7145   0.589   0.031   0.940 -0.1853  0.1453 -0.3521
 2337SOL    HW1 7146   0.677  -0.005   0.922  0.0684  0.4981  0.1639
 2337SOL    HW2 7147   0.605   0.123   0.962 -0.4785 -0.1880  1.4489
 2338SOL     OW 7148   3.111   3.095   2.403 -0.3497 -0.2296 -0.4778
 2338SOL    HW1 7149   3.081   3.150   2.476  2.0388 -0.3142  0.6693
 2338SOL    HW2 7150   3.120   3.155   2.329 -0.6981  0.2912 -0.1056
 2339SOL     OW 7151   3.600   4.569   1.775 -0.0152 -0.0522  0.2331
 2339SOL    HW1 7152   3.531   4.523   1.822  0.8955 -1.3310  0.3524
 2339SOL    HW2 7153   3.593   4.660   1.805 -3.6441  0.6441 -2.0608
 2340SOL     OW 7154   1.879   2.377   4.059 -0.1632  0.3237  0.1072
 2340SOL    HW1 7155   1.925   2.307   4.105 -1.6324 -1.4416 -0.9873
 2340SOL    HW2 7156   1.813   2.407   4.121  1.5310  2.0246  1.2226
 2341SOL     OW 7157   3.366   2.456   2.955  0.7122 -0.1895 -0.8344
 2341SOL    HW1 7158   3.404   2.409   2.881 -0.4155 -1.8926 -0.3982
 2341SOL    HW2 7159   3.281   2.488   2.923 -0.5486 -2.3487  0.0847
 2342SOL     OW 7160   3.588   1.402   2.746  0.5156  0.1845 -0.5171
 2342SOL    HW1 7161   3.571   1.368   2.834  0.9954  1.2684  0.0118
 2342SOL    HW2 7162   3.511   1.456   2.726  1.2823  1.5586  0.0862
 2343SOL     OW 7163   4.101   4.299   2.971 -0.0107  0.3796  0.2477
 2343SOL    HW1 7164   4.101   4.379   2.919 -1.4022  1.4069  1.7452
 2343SOL    HW2 7165   4.071   4.231   2.910  0.3105  1.1552 -0.7961
 2344SOL     OW 7166   0.967   2.688   0.338  0.4554 -0.2196 -0.0001
 2344SOL    HW1 7167   0.986   2.632   0.414  2.5952 -0.8683 -0.9336
 2344SOL    HW2 7168   0.936   2.628   0.270  0.0086  0.1490 -0.1305
 2345SOL     OW 7169   0.337   2.575   2.407  0.1759 -0.2121  0.7357
 2345SOL    HW1 7170   0.331   2.526   2.488  0.1906 -1.5873 -0.0643
 2345SOL    HW2 7171   0.248   2.571   2.370  0.1286  0.5363  0.7529
 2346SOL     OW 7172   0.325   1.733   2.982 -0.2548 -0.4862 -0.1565
 2346SOL    HW1 7173   0.383   1.806   2.958 -0.8455  0.1145  0.2090
 2346SOL    HW2 7174   0.243   1.775   3.009 -1.4591 -1.3859 -2.1975
 2347SOL     OW 7175   2.344   4.196   2.632  0.1473 -0.0645  0.3185
 2347SOL    HW1 7176   2.275   4.201   2.566 -0.2603  0.3697  0.7689
 2347SOL    HW2 7177   2.422   4.231   2.588 -0.6383  2.4655  0.7305
 2348SOL     OW 7178   1.688   2.060   4.123  0.3146  0.5411  0.0039
 2348SOL    HW1 7179   1.641   2.139   4.149  0.1812 -0.2473  2.4316
 2348SOL    HW2 7180   1.633   1.988   4.153  0.7636 -0.4792 -1.5335
 2349SOL     OW 7181   3.430   2.343   1.590  0.3775  0.0464  0.1572
 2349SOL    HW1 7182   3.346   2.351   1.635  0.1056  1.0114 -0.5023
 2349SOL    HW2 7183   3.466   2.432   1.589  2.5650 -0.6717  2.5636
 2350SOL     OW 7184   0.333   2.169   0.417 -0.2714  0.6023  0.0643
 2350SOL    HW1 7185   0.374   2.095   0.462  1.9967  0.5568 -1.8216
 2350SOL    HW2 7186   0.318   2.137   0.328 -1.1451  1.8010 -0.2435
 2351SOL     OW 7187   3.884   1.256   0.087 -0.1517 -0.6241  0.3056
 2351SOL    HW1 7188   3.898   1.317   0.160 -1.9794 -1.6768  1.6024
 2351SOL    HW2 7189   3.952   1.189   0.099  0.5632  0.0367  0.0723
 2352SOL     OW 7190   1.845   3.192   4.172 -0.1656  0.1842 -0.5378
 2352SOL    HW1 7191   1.840   3.155   4.260  2.1006 -0.6724 -0.6976
 2352SOL    HW2 7192   1.887   3.278   4.184  0.9990 -0.3240 -0.8350
 2353SOL     OW 7193   3.030   1.808   1.836  0.5985 -0.0092  0.1790
 2353SOL    HW1 7194   3.051   1.827   1.744 -0.1576  2.2212  0.3968
 2353SOL    HW2 7195   2.935   1.795   1.836  0.2629  2.0418  0.8721
 2354SOL     OW 7196   1.227   4.648   4.069  0.5540  0.2718 -0.0474
 2354SOL    HW1 7197   1.165   4.641   4.142  0.1632 -0.3467 -0.4244
 2354SOL    HW2 7198   1.289   4.576   4.085  0.7712  0.4599 -0.0452
 2355SOL     OW 7199   3.777   0.518   0.047 -0.4750  0.1936  0.7743
 2355SOL    HW1 7200   3.847   0.578   0.072 -0.7130  0.0753  1.7641
 2355SOL    HW2 7201   3.755   0.472   0.128 -0.9406 -0.5566  0.2296
 2356SOL     OW 7202   2.870   2.772   4.500 -0.4552  0.1394 -0.2655
 2356SOL    HW1 7203   2.808   2.704   4.474  0.8710 -0.8298 -0.9671
 2356SOL    HW2 7204   2.950   2.725   4.522  1.2337  1.5553 -2.8439
 2357SOL     OW 7205   3.558   0.652   1.474  0.3612  0.0711  0.7354
 2357SOL    HW1 7206   3.494   0.682   1.539 -0.3523 -1.4123  0.7722
 2357SOL    HW2 7207   3.561   0.557   1.486  0.0602 -0.2843 -1.4941
 2358SOL     OW 7208   1.430   0.991   4.828  0.3945  0.0828 -0.8218
 2358SOL    HW1 7209   1.365   1.033   4.885 -1.2791 -1.1711 -1.7131
 2358SOL    HW2 7210   1.420   0.898   4.847  4.2154 -0.0934  1.3402
 2359SOL     OW 7211   2.234   4.452   4.979 -0.3419  0.3185 -0.0218
 2359SOL    HW1 7212   2.170   4.496   4.923 -0.7131  1.5166  1.2899
 2359SOL    HW2 7213   2.231   4.500   5.062  0.5111 -1.1208  0.8905
 2360SOL     OW 7214   0.672   1.059   4.506  0.1189  0.0843 -0.2464
 2360SOL    HW1 7215   0.649   0.983   4.560 -0.5870 -0.5008 -1.3384
 2360SOL    HW2 7216   0.760   1.038   4.473  0.3931  0.2675  0.3541
 2361SOL     OW 7217   3.520   2.831   3.745  0.2140 -0.4444  0.1390
 2361SOL    HW1 7218   3.577   2.897   3.785 -0.4107  1.6769 -2.2180
 2361SOL    HW2 7219   3.451   2.817   3.810  0.0377  1.7283  0.5009
 2362SOL     OW 7220   2.016   0.545   4.146  0.3543  0.6284  0.2751
 2362SOL    HW1 7221   2.091   0.486   4.135  0.6411  0.8335  1.0831
 2362SOL    HW2 7222   2.046   0.629   4.111  0.8584  0.9672  1.4476
 2363SOL     OW 7223   4.026   0.842   2.347 -0.3216  0.3353  0.3599
 2363SOL    HW1 7224   4.097   0.803   2.398 -0.1970 -1.1979 -0.9351
 2363SOL    HW2 7225   4.045   0.818   2.256 -1.9356  0.8108 -0.1361
 2364SOL     OW 7226   4.788   4.973   3.604 -0.5513  0.2437  0.0814
 2364SOL    HW1 7227   4.879   4.947   3.616 -0.3340  1.1095  0.4035
 2364SOL    HW2 7228   4.793   5.055   3.555 -1.2311 -0.6448 -1.5657
 2365SOL     OW 7229   1.455   1.071   1.195  0.2420 -0.0763 -0.1989
 2365SOL    HW1 7230   1.463   1.135   1.265 -0.4522  0.5367 -0.6668
 2365SOL    HW2 7231   1.454   0.986   1.240 -0.2713  0.3118  0.5382
 2366SOL     OW 7232   1.454   3.109   0.216 -0.4499  1.0313  0.2002
 2366SOL    HW1 7233   1.512   3.174   0.255  0.4266 -0.6912  1.9134
 2366SOL    HW2 7234   1.402   3.076   0.288  0.6254 -1.6524 -0.1258
 2367SOL     OW 7235   1.806   2.595   0.712 -0.5414 -0.6872  0.0714
 2367SOL    HW1 7236   1.789   2.635   0.627 -1.1918  1.5491  1.1666
 2367SOL    HW2 7237   1.869   2.525   0.694  0.3383  0.5594 -2.0733
 2368SOL     OW 7238   4.628   1.579   4.218  0.1304 -0.0462  0.1898
 2368SOL    HW1 7239   4.621   1.513   4.287  0.2985 -0.9868 -0.6638
 2368SOL    HW2 7240   4.722   1.590   4.205  0.1152  0.7314  0.6492
 2369SOL     OW 7241   4.785   1.035   2.070  0.0520 -0.1702 -0.2237
 2369SOL    HW1 7242   4.846   1.052   2.142 -1.5468  0.0266  1.1485
 2369SOL    HW2 7243   4.770   0.940   2.074 -2.1459  0.1535  1.5965
 2370SOL     OW 7244   4.831   1.221   1.575  0.2518  0.1275 -0.0618
 2370SOL    HW1 7245   4.736   1.237   1.576  0.1471 -0.4668 -0.3868
 2370SOL    HW2 7246   4.850   1.186   1.662 -0.2505 -2.0959 -0.7809
 2371SOL     OW 7247   1.109   4.816   0.990 -0.5675  0.2104 -0.5297
 2371SOL    HW1 7248   1.142   4.777   1.071 -2.9396  0.5713  0.6883
 2371SOL    HW2 7249   1.144   4.759   0.921  2.0037  0.2392  0.6218
 2372SOL     OW 7250   1.789   4.429   2.136  0.3787  0.0589 -0.1032
 2372SOL    HW1 7251   1.847   4.355   2.117  2.5019  0.2369  4.3306
 2372SOL    HW2 7252   1.847   4.504   2.141 -0.2523  0.4744  3.2934
 2373SOL     OW 7253   2.029   0.144   2.204  0.1455  0.1131 -0.0471
 2373SOL    HW1 7254   1.952   0.129   2.149 -0.9951 -0.1433  1.5437
 2373SOL    HW2 7255   2.075   0.217   2.162 -1.1830  0.5485 -0.7905
 2374SOL     OW 7256   3.158   0.071   2.962 -0.1386  0.0396 -0.4493
 2374SOL    HW1 7257   3.213   0.138   3.004  0.3160 -0.5961 -0.0088
 2374SOL    HW2 7258   3.084   0.060   3.022 -0.2715  0.2190 -0.5773
 2375SOL     OW 7259   0.149   4.655   4.108  0.1906 -0.0011 -0.4181
 2375SOL    HW1 7260   0.202   4.635   4.031  1.7160 -0.6879  0.7493
 2375SOL    HW2 7261   0.205   4.631   4.182 -0.9121  1.3952  0.9313
 2376SOL     OW 7262   2.562   4.988   4.262  0.1940 -0.2677  0.4278
 2376SOL    HW1 7263   2.640   5.042   4.253 -0.4166  0.3406 -1.8032
 2376SOL    HW2 7264   2.590   4.916   4.319  3.3566 -1.7278 -2.5688
 2377SOL     OW 7265   4.540   1.527   4.953 -0.1322  0.2273 -0.9288
 2377SOL    HW1 7266   4.597   1.453   4.973 -1.5120 -0.9674 -1.2178
 2377SOL    HW2 7267   4.554   1.589   5.024 -1.1898 -1.6952  1.0691
 2378SOL     OW 7268   4.750   3.049   0.718  0.2221 -0.0024 -0.2256
 2378SOL    HW1 7269   4.672   3.045   0.773  0.3623  0.2178 -0.0096
 2378SOL    HW2 7270   4.721   3.014   0.634  0.3977 -1.7893  0.4211
 2379SOL     OW 7271   4.195   2.241   0.480  0.1016  0.4217 -0.5905
 2379SOL    HW1 7272   4.206   2.263   0.387 -0.2538  0.8987 -0.5266
 2379SOL    HW2 7273   4.244   2.309   0.526  0.6390 -0.0673 -0.4411
 2380SOL     OW 7274   4.287   4.799   1.420  0.4153 -0.9201  0.3540
 2380SOL    HW1 7275   4.361   4.814   1.479 -0.1329  0.8569  0.6262
 2380SOL    HW2 7276   4.326   4.759   1.342  1.2678 -2.5395  1.5345
 2381SOL     OW 7277   4.811   0.478   2.872 -0.0234  0.3183 -0.0933
 2381SOL    HW1 7278   4.844   0.535   2.803 -0.5681  1.4670  0.5706
 2381SOL    HW2 7279   4.870   0.402   2.871  2.4698  2.1084  0.8306
 2382SOL     OW 7280   0.094   1.249   4.060  0.0399 -0.2755  0.3757
 2382SOL    HW1 7281   0.115   1.245   3.967  0.1380 -0.6509  0.4159
 2382SOL    HW2 7282   0.048   1.168   4.079 -0.6155  0.1153  0.4976
 2383SOL     OW 7283   1.644   3.842   4.691  0.0331 -0.1594  0.2873
 2383SOL    HW1 7284   1.567   3.790   4.714 -0.2936  0.0545 -0.2979
 2383SOL    HW2 7285   1.625   3.930   4.724 -0.6814  0.2878 -1.2309
 2384SOL     OW 7286   1.509   3.018   2.167 -0.2301 -0.4573  0.3356
 2384SOL    HW1 7287   1.433   2.967   2.195  1.2112 -1.5560  2.5564
 2384SOL    HW2 7288   1.560   2.959   2.112  0.3827 -0.7388  1.1758
 2385SOL     OW 7289   4.401   0.467   1.454 -0.0848  0.1571 -0.1119
 2385SOL    HW1 7290   4.403   0.549   1.406  3.3783 -1.0834 -2.5159
 2385SOL    HW2 7291   4.347   0.409   1.401  0.4167 -0.0786 -0.3762
 2386SOL     OW 7292   2.058   2.967   0.625 -0.0758  0.1297 -0.7431
 2386SOL    HW1 7293   2.114   2.992   0.698 -1.1238  2.4638 -0.6486
 2386SOL    HW2 7294   1.970   2.963   0.662 -0.4131 -0.2499 -1.5562
 2387SOL     OW 7295   0.272   3.447   4.222 -0.2712  0.4013  0.1754
 2387SOL    HW1 7296   0.222   3.403   4.291  1.1254  2.0270  2.3480
 2387SOL    HW2 7297   0.255   3.395   4.143 -1.5173 -1.8573  1.8219
 2388SOL     OW 7298   2.332   4.757   3.215  0.3571 -0.4980  0.1184
 2388SOL    HW1 7299   2.329   4.757   3.310  0.6063  2.3187  0.2025
 2388SOL    HW2 7300   2.373   4.673   3.192 -1.3765 -2.0495  2.3399
 2389SOL     OW 7301   2.702   1.258   2.249  0.0172 -0.2414 -0.3685
 2389SOL    HW1 7302   2.634   1.290   2.189 -0.0980  0.4711  0.1279
 2389SOL    HW2 7303   2.740   1.337   2.287  0.6840 -0.6542 -0.1455
 2390SOL     OW 7304   4.835   2.329   3.660 -0.5687  0.1867 -0.1094
 2390SOL    HW1 7305   4.896   2.312   3.589  0.6296 -0.7634  1.0984
 2390SOL    HW2 7306   4.815   2.242   3.696 -1.6906  0.5919  0.2962
 2391SOL     OW 7307   1.672   1.263   0.728  0.2203 -0.1881 -0.6595
 2391SOL    HW1 7308   1.579   1.273   0.708  0.0458  0.6200  0.4443
 2391SOL    HW2 7309   1.717   1.316   0.662 -0.3153  2.2180  0.7891
 2392SOL     OW 7310   3.885   4.702   4.493 -0.3948  0.1183  0.7729
 2392SOL    HW1 7311   3.863   4.791   4.521 -1.7618 -0.0254  0.2445
 2392SOL    HW2 7312   3.907   4.657   4.574 -0.4210  0.7448  1.1378
 2393SOL     OW 7313   2.852   1.639   3.980  0.3603 -0.3909  0.4322
 2393SOL    HW1 7314   2.883   1.727   4.000  2.3314 -0.2509 -2.5721
 2393SOL    HW2 7315   2.914   1.606   3.915 -1.9810 -2.8797 -0.7414
 2394SOL     OW 7316   0.635   1.968   3.234  0.0042  0.5064 -0.0516
 2394SOL    HW1 7317   0.640   2.063   3.220  2.2335  0.8173  2.2513
 2394SOL    HW2 7318   0.726   1.941   3.248 -0.6077 -1.9730 -0.4246
 2395SOL     OW 7319   4.202   0.142   1.126 -0.8110  0.2685  0.4635
 2395SOL    HW1 7320   4.147   0.213   1.092 -2.0022  0.8669  3.3048
 2395SOL    HW2 7321   4.142   0.087   1.176  0.2202 -2.4328 -1.0327
 2396SOL     OW 7322   4.141   3.240   3.886 -0.6357 -0.2455 -0.5848
 2396SOL    HW1 7323   4.164   3.251   3.793  0.0059  0.5473 -0.3469
 2396SOL    HW2 7324   4.079   3.310   3.904  0.4721  0.6410 -0.0327
 2397SOL     OW 7325   1.599   0.882   4.179 -0.2940 -0.3470  0.6727
 2397SOL    HW1 7326   1.658   0.822   4.226  0.1480  0.3023  0.9599
 2397SOL    HW2 7327   1.655   0.923   4.113 -1.4264 -3.2645 -2.4439
 2398SOL     OW 7328   3.628   0.556   3.744 -0.1101 -0.1868  0.3024
 2398SOL    HW1 7329   3.591   0.602   3.669  0.9066 -2.8303 -1.9734
 2398SOL    HW2 7330   3.599   0.607   3.820 -2.7315  1.5720 -1.7141
 2399SOL     OW 7331   2.864   3.066   4.852 -0.0446  0.4111  0.0053
 2399SOL    HW1 7332   2.955   3.093   4.836 -0.3744  0.5781 -1.7782
 2399SOL    HW2 7333   2.849   2.996   4.788 -1.2192  0.4749  0.2029
 2400SOL     OW 7334   3.923   3.562   0.717 -0.7649 -0.3619 -0.2870
 2400SOL    HW1 7335   3.846   3.573   0.662 -0.5507 -1.9461 -0.9296
 2400SOL    HW2 7336   3.997   3.566   0.657 -0.2392  1.8705  0.4039
 2401SOL     OW 7337   1.518   4.037   1.881 -0.3908 -0.0376 -0.3787
 2401SOL    HW1 7338   1.582   4.034   1.810  0.5293 -0.3574  0.4461
 2401SOL    HW2 7339   1.514   3.948   1.914 -2.1608 -0.2963 -1.1684
 2402SOL     OW 7340   0.306   0.738   3.091 -0.4969 -0.0692 -0.5035
 2402SOL    HW1 7341   0.306   0.769   3.182  1.7795 -0.2568 -0.3907
 2402SOL    HW2 7342   0.261   0.807   3.042  0.4852  1.2704  0.4093
 2403SOL     OW 7343   4.072   0.008   3.791  0.3765  0.1903  0.4672
 2403SOL    HW1 7344   4.003   0.046   3.844 -0.2542 -0.2309 -0.0389
 2403SOL    HW2 7345   4.153   0.025   3.840 -0.2561 -0.8900  1.9471
 2404SOL     OW 7346   3.415   0.513   3.156 -0.5742  0.5168 -0.1559
 2404SOL    HW1 7347   3.339   0.567   3.176 -1.1388  0.2262 -1.4015
 2404SOL    HW2 7348   3.461   0.559   3.087  0.7589  0.9938  0.9975
 2405SOL     OW 7349   2.197   0.910   2.479 -0.0733 -0.0944 -0.6145
 2405SOL    HW1 7350   2.208   0.928   2.572  0.1280  0.1010 -0.6747
 2405SOL    HW2 7351   2.131   0.972   2.450 -0.3592 -0.3632 -0.5365
 2406SOL     OW 7352   3.998   0.815   2.717 -0.3557 -0.0206 -0.8151
 2406SOL    HW1 7353   3.968   0.779   2.800  0.4018 -0.2483 -0.6357
 2406SOL    HW2 7354   3.930   0.789   2.654 -1.4803  1.0580 -0.0964
 2407SOL     OW 7355   3.137   3.217   2.156  0.4762 -0.6525 -0.0384
 2407SOL    HW1 7356   3.195   3.159   2.106  1.5566  1.2587 -1.1093
 2407SOL    HW2 7357   3.171   3.305   2.140 -0.5115  0.2380  2.3092
 2408SOL     OW 7358   4.031   4.918   1.249 -0.2774  0.0169 -0.4671
 2408SOL    HW1 7359   3.998   4.852   1.309  0.6673  0.8655  1.0307
 2408SOL    HW2 7360   3.952   4.953   1.206 -1.4416  1.8043  2.8006
 2409SOL     OW 7361   1.462   2.728   1.092 -0.2581  0.3304 -0.3627
 2409SOL    HW1 7362   1.470   2.797   1.159 -0.9857  0.2533 -0.1906
 2409SOL    HW2 7363   1.553   2.709   1.068  0.0971 -0.3792  1.3559
 2410SOL     OW 7364   1.634   0.977   1.867  0.1945  0.4160 -0.1296
 2410SOL    HW1 7365   1.557   0.978   1.925 -0.3483  0.1346 -0.8323
 2410SOL    HW2 7366   1.599   0.955   1.781  1.0045  0.7625 -0.5589
 2411SOL     OW 7367   0.641   3.594   1.287 -0.6149  0.6396 -0.2307
 2411SOL    HW1 7368   0.662   3.509   1.326 -0.6060  0.3701 -0.8106
 2411SOL    HW2 7369   0.579   3.634   1.348  0.6017  0.9230  0.8759
 2412SOL     OW 7370   2.535   3.673   3.113  0.4601 -0.7760  0.5252
 2412SOL    HW1 7371   2.498   3.759   3.094 -1.8176 -1.6813  0.4926
 2412SOL    HW2 7372   2.492   3.614   3.050  1.1781 -2.1105  1.2258
 2413SOL     OW 7373   2.541   1.410   2.568  0.2411 -0.3497  0.1536
 2413SOL    HW1 7374   2.635   1.425   2.580  0.1894 -0.4371  0.6979
 2413SOL    HW2 7375   2.536   1.354   2.491  0.6820 -0.8528  0.4785
 2414SOL     OW 7376   4.428   4.963   1.835  0.0692 -0.6117  0.3914
 2414SOL    HW1 7377   4.482   5.041   1.827 -0.8385  0.2049  1.6977
 2414SOL    HW2 7378   4.469   4.912   1.905 -1.7756  0.9236  2.7484
 2415SOL     OW 7379   0.044   2.529   1.488 -0.1480 -0.3167  0.2959
 2415SOL    HW1 7380   0.004   2.583   1.557 -0.1189 -0.2972  0.2973
 2415SOL    HW2 7381  -0.024   2.523   1.420 -0.5493 -1.1629  0.7604
 2416SOL     OW 7382   1.835   0.434   3.964  0.1424  0.5379 -0.3612
 2416SOL    HW1 7383   1.901   0.459   4.029 -0.2904  0.2131  0.2135
 2416SOL    HW2 7384   1.841   0.502   3.897  1.2009  0.4006 -0.4313
 2417SOL     OW 7385   0.292   4.964   4.917 -0.0864 -0.7725 -0.1701
 2417SOL    HW1 7386   0.369   4.907   4.923  1.0008  0.7689  1.7135
 2417SOL    HW2 7387   0.250   4.956   5.002 -0.6788  0.1964 -0.3573
 2418SOL     OW 7388   0.482   4.052   0.921 -0.2255 -0.7606  0.4427
 2418SOL    HW1 7389   0.542   4.001   0.866  1.5887  1.5302  0.1122
 2418SOL    HW2 7390   0.395   4.026   0.892  0.6583 -1.2266 -2.0616
 2419SOL     OW 7391   4.091   3.027   0.766  0.1261  0.0826 -0.3771
 2419SOL    HW1 7392   4.103   3.100   0.826 -0.0786  0.1028 -0.3582
 2419SOL    HW2 7393   4.179   2.991   0.753  0.1188 -0.2035  0.2989
 2420SOL     OW 7394   0.077   1.160   1.289 -0.0090 -0.1144 -0.5225
 2420SOL    HW1 7395   0.140   1.107   1.241  0.3824  0.8457 -1.1127
 2420SOL    HW2 7396  -0.005   1.149   1.241  0.0413 -0.2821 -0.5699
 2421SOL     OW 7397   1.317   3.257   2.010  1.1268 -0.3188 -0.2551
 2421SOL    HW1 7398   1.232   3.294   1.985  1.4842 -0.0755 -1.1472
 2421SOL    HW2 7399   1.305   3.162   2.000  0.8904 -0.3004 -0.1556
 2422SOL     OW 7400   4.226   1.790   1.143  0.2440 -0.0083 -0.6982
 2422SOL    HW1 7401   4.243   1.882   1.161 -0.8634 -0.2110  1.8573
 2422SOL    HW2 7402   4.290   1.766   1.076  1.2935  2.3089 -0.6092
 2423SOL     OW 7403   3.786   3.059   1.045 -0.1354  0.1990 -0.2563
 2423SOL    HW1 7404   3.873   3.094   1.065 -0.5383  0.1831  1.6496
 2423SOL    HW2 7405   3.725   3.123   1.080 -0.9261  0.2544 -1.6649
 2424SOL     OW 7406   2.947   1.455   3.456 -0.3047  0.2509  0.0655
 2424SOL    HW1 7407   2.910   1.543   3.451  1.6788  1.3751  2.7581
 2424SOL    HW2 7408   2.938   1.420   3.368 -2.8602  2.3779 -0.6671
 2425SOL     OW 7409   0.118   0.591   1.980 -0.0529  0.0855 -0.2593
 2425SOL    HW1 7410   0.087   0.588   1.889  1.8686  2.5197 -1.1060
 2425SOL    HW2 7411   0.114   0.500   2.010 -0.5808 -0.8150 -2.8289
 2426SOL     OW 7412   4.455   3.843   3.126 -0.0112  0.2036 -0.2676
 2426SOL    HW1 7413   4.453   3.843   3.030 -0.7255  2.8638 -0.3461
 2426SOL    HW2 7414   4.486   3.756   3.150 -1.3424 -1.0849 -2.8638
 2427SOL     OW 7415   0.959   2.739   4.803  0.4347  0.0177 -0.0838
 2427SOL    HW1 7416   1.041   2.692   4.787 -0.1695 -0.5377 -1.7540
 2427SOL    HW2 7417   0.944   2.789   4.722 -0.6686  0.4401  0.3573
 2428SOL     OW 7418   4.811   0.759   3.554  0.2131  0.3595  0.2038
 2428SOL    HW1 7419   4.745   0.762   3.485  0.2906 -1.1570  0.0198
 2428SOL    HW2 7420   4.824   0.666   3.570 -0.4620  0.6687  2.9448
 2429SOL     OW 7421   1.620   1.214   3.790 -0.0411 -0.3509 -0.3657
 2429SOL    HW1 7422   1.671   1.249   3.716 -1.4577 -0.4108 -1.4231
 2429SOL    HW2 7423   1.553   1.280   3.806  0.8022  0.1055  1.5397
 2430SOL     OW 7424   3.239   4.843   4.730  0.3947 -0.0055  0.2056
 2430SOL    HW1 7425   3.208   4.765   4.684 -0.8382  1.2360 -1.1415
 2430SOL    HW2 7426   3.195   4.839   4.815  1.0972 -1.2486  0.5376
 2431SOL     OW 7427   3.653   1.035   0.354  0.8733  0.3454 -0.1463
 2431SOL    HW1 7428   3.685   1.093   0.423 -1.0458  0.8558  0.3983
 2431SOL    HW2 7429   3.563   1.065   0.339  0.7602 -0.7423 -1.8133
 2432SOL     OW 7430   1.302   0.476   4.553  0.4237 -0.2922  0.5313
 2432SOL    HW1 7431   1.224   0.423   4.543  0.1390  0.4496 -1.6286
 2432SOL    HW2 7432   1.373   0.422   4.520 -0.0278  0.9402 -2.7960
 2433SOL     OW 7433   0.395   1.515   0.908  0.4207  0.8858  0.0641
 2433SOL    HW1 7434   0.353   1.561   0.980  1.1860 -0.7726  1.6647
 2433SOL    HW2 7435   0.348   1.543   0.829 -0.2718  2.9469  1.1634
 2434SOL     OW 7436   2.635   4.676   1.558  0.0679 -0.0452  0.3267
 2434SOL    HW1 7437   2.571   4.701   1.625  1.7777  1.3732  1.5453
 2434SOL    HW2 7438   2.718   4.711   1.591  1.2640 -0.7571 -1.7663
 2435SOL     OW 7439   4.244   2.708   2.323  0.1022 -0.9341  0.3722
 2435SOL    HW1 7440   4.188   2.682   2.250  1.6591 -3.2775 -0.1215
 2435SOL    HW2 7441   4.207   2.663   2.399  0.3739 -1.2191  0.3425
 2436SOL     OW 7442   3.615   4.780   2.393 -0.0652 -0.0208 -0.1644
 2436SOL    HW1 7443   3.700   4.802   2.431 -0.1518 -1.7944  1.2001
 2436SOL    HW2 7444   3.552   4.793   2.463 -0.4474 -1.7778 -0.1180
 2437SOL     OW 7445   4.911   3.936   3.120  0.4512 -0.0163 -0.2824
 2437SOL    HW1 7446   4.819   3.940   3.147  0.3611 -4.3452  0.7334
 2437SOL    HW2 7447   4.960   3.952   3.201  0.4903 -0.5187 -0.2025
 2438SOL     OW 7448   2.113   2.942   3.954  0.1698  0.4476  0.1326
 2438SOL    HW1 7449   2.115   2.904   3.866  2.0435 -1.6335  0.9842
 2438SOL    HW2 7450   2.035   2.903   3.995  1.0001 -1.0402  0.3580
 2439SOL     OW 7451   3.290   2.043   2.059 -0.0295  0.2623  0.1203
 2439SOL    HW1 7452   3.362   1.983   2.040 -0.2286  0.3321 -0.9492
 2439SOL    HW2 7453   3.269   2.082   1.974 -2.0626 -0.5783  0.1850
 2440SOL     OW 7454   3.656   1.376   2.284 -0.0977  0.4124  0.2413
 2440SOL    HW1 7455   3.747   1.400   2.263  0.2414  0.9482  2.1243
 2440SOL    HW2 7456   3.652   1.381   2.379 -1.4058 -2.1806  0.4085
 2441SOL     OW 7457   2.015   0.299   0.360 -0.4572  0.4964 -0.4566
 2441SOL    HW1 7458   1.919   0.290   0.354 -0.3356 -0.4873 -1.0735
 2441SOL    HW2 7459   2.033   0.385   0.322 -1.2331  1.4814  1.2330
 2442SOL     OW 7460   0.464   1.648   1.579  0.8905  0.9508  0.2330
 2442SOL    HW1 7461   0.391   1.623   1.635  0.8953 -1.8206 -0.8699
 2442SOL    HW2 7462   0.540   1.605   1.618  1.1983  0.4525 -0.8780
 2443SOL     OW 7463   4.571   1.080   3.582  0.2148 -0.2976  0.5039
 2443SOL    HW1 7464   4.536   1.036   3.504  0.4347  2.8525 -1.5469
 2443SOL    HW2 7465   4.497   1.086   3.641 -0.4854 -1.0616 -0.2663
 2444SOL     OW 7466   3.044   0.831   3.360  0.6706 -0.1333 -0.0339
 2444SOL    HW1 7467   2.981   0.782   3.413  2.7039 -2.1586  0.6876
 2444SOL    HW2 7468   3.040   0.920   3.395 -1.4657 -0.2653  0.2178
 2445SOL     OW 7469   3.054   3.775   2.077 -0.7262 -0.1888  0.0540
 2445SOL    HW1 7470   3.013   3.860   2.097 -0.6700  0.1309 -1.0594
 2445SOL    HW2 7471   3.000   3.711   2.123 -0.5082  0.4748  1.2799
 2446SOL     OW 7472   3.173   0.157   4.366  0.1260 -0.7577  0.5399
 2446SOL    HW1 7473   3.233   0.101   4.415  1.2998 -0.4742 -0.5258
 2446SOL    HW2 7474   3.188   0.245   4.400  0.8604 -0.5776 -0.2249
 2447SOL     OW 7475   0.066   0.048   0.570 -0.7201 -0.0362  0.3406
 2447SOL    HW1 7476   0.112   0.129   0.548  1.2584 -1.2420 -0.2754
 2447SOL    HW2 7477   0.049   0.007   0.485 -2.6139  0.1551  0.5833
 2448SOL     OW 7478   3.442   4.595   2.279  0.1505 -0.2815 -0.2406
 2448SOL    HW1 7479   3.470   4.511   2.244 -0.1240 -1.6504  2.5083
 2448SOL    HW2 7480   3.518   4.626   2.329  0.1865  1.0715 -1.0857
 2449SOL     OW 7481   4.844   3.818   1.719  0.1000 -0.5240  0.3934
 2449SOL    HW1 7482   4.856   3.911   1.701  0.7502 -1.0859 -2.5013
 2449SOL    HW2 7483   4.753   3.799   1.696  0.5287 -0.9635 -1.0380
 2450SOL     OW 7484   2.861   1.820   3.696 -0.4315 -0.3931 -0.0339
 2450SOL    HW1 7485   2.936   1.760   3.700  1.1691  1.5450  0.7140
 2450SOL    HW2 7486   2.863   1.854   3.607 -1.0129 -1.0089 -0.2925
 2451SOL     OW 7487   2.573   2.431   1.033  0.5041 -0.3639  0.1435
 2451SOL    HW1 7488   2.498   2.393   1.079  0.7303 -1.5688 -0.4456
 2451SOL    HW2 7489   2.547   2.522   1.018  0.3684  0.0412  2.4727
 2452SOL     OW 7490   2.224   2.519   0.843 -0.0462  0.2466 -0.2962
 2452SOL    HW1 7491   2.289   2.450   0.850 -2.9853 -2.8592 -0.9773
 2452SOL    HW2 7492   2.266   2.587   0.790  2.3360 -1.8962 -1.3282
 2453SOL     OW 7493   2.855   3.963   2.093 -0.7217  0.3226  0.9260
 2453SOL    HW1 7494   2.774   3.915   2.113 -0.4178 -1.3904 -1.4166
 2453SOL    HW2 7495   2.867   3.950   1.999  2.1169  0.8157  1.1385
 2454SOL     OW 7496   1.193   2.154   4.752 -0.1704  0.1314 -0.1425
 2454SOL    HW1 7497   1.254   2.096   4.705 -0.4368 -0.2953  0.0268
 2454SOL    HW2 7498   1.138   2.191   4.682  1.5216  2.0757 -0.5306
 2455SOL     OW 7499   0.090   0.884   4.179 -0.7330 -0.6331 -0.2521
 2455SOL    HW1 7500   0.060   0.872   4.269  3.0412 -1.6111  1.0767
 2455SOL    HW2 7501   0.134   0.802   4.157  0.1241  0.2893 -2.2476
 2456SOL     OW 7502   3.255   4.392   2.523  0.1924 -0.3962 -0.2872
 2456SOL    HW1 7503   3.201   4.396   2.602 -0.6819 -0.3570 -0.8688
 2456SOL    HW2 7504   3.196   4.419   2.452  1.8522  2.9353 -0.5551
 2457SOL     OW 7505   3.480   3.034   4.495 -0.3519 -0.0904  0.8767
 2457SOL    HW1 7506   3.449   3.096   4.429 -0.5763 -1.3561 -0.2364
 2457SOL    HW2 7507   3.575   3.048   4.497 -0.2802 -0.3676 -0.0726
 2458SOL     OW 7508   2.352   2.700   0.596 -0.3215 -0.0419  0.5945
 2458SOL    HW1 7509   2.407   2.766   0.553 -2.1668  0.6732 -0.7942
 2458SOL    HW2 7510   2.264   2.715   0.561 -1.4861 -0.9791  2.9300
 2459SOL     OW 7511   4.100   1.556   0.876 -0.3855 -0.3619 -0.9590
 2459SOL    HW1 7512   4.158   1.487   0.909  1.7850  0.9862 -1.7803
 2459SOL    HW2 7513   4.129   1.635   0.920 -1.7164  0.3578 -1.3209
 2460SOL     OW 7514   1.195   3.003   2.031  1.1701  0.5826  0.2888
 2460SOL    HW1 7515   1.210   2.963   2.116  0.2764 -0.6479 -0.1095
 2460SOL    HW2 7516   1.196   2.930   1.969  1.3689  1.4048 -0.7115
 2461SOL     OW 7517   3.496   0.273   2.848  0.5699 -0.8470 -0.1786
 2461SOL    HW1 7518   3.498   0.343   2.783 -0.2709 -2.2447 -1.7676
 2461SOL    HW2 7519   3.436   0.208   2.812 -1.0008 -1.1097  2.5995
 2462SOL     OW 7520   2.976   1.126   4.486 -0.8676  0.3343 -0.0352
 2462SOL    HW1 7521   3.018   1.049   4.449 -3.0231  0.1811 -2.3800
 2462SOL    HW2 7522   2.973   1.108   4.580  3.3860  0.0285  0.2767
 2463SOL     OW 7523   1.899   3.179   3.303  0.4344  0.0510 -0.3202
 2463SOL    HW1 7524   1.962   3.114   3.333  0.8518  0.6339  0.0847
 2463SOL    HW2 7525   1.915   3.256   3.357 -1.0847  0.0008  0.2522
 2464SOL     OW 7526   4.331   4.758   4.140 -0.3157 -0.1210  0.5446
 2464SOL    HW1 7527   4.337   4.853   4.148  0.5810 -0.3444  4.0554
 2464SOL    HW2 7528   4.410   4.732   4.093  0.7428  0.7396  1.7799
 2465SOL     OW 7529   0.256   1.688   1.122  0.6902 -0.4055  0.1998
 2465SOL    HW1 7530   0.178   1.743   1.123  1.7507  1.2047 -0.9911
 2465SOL    HW2 7531   0.254   1.642   1.206 -1.6827 -0.6704  0.0695
 2466SOL     OW 7532   2.380   0.621   4.796 -0.2343  0.7212 -0.0374
 2466SOL    HW1 7533   2.320   0.548   4.809 -1.0373  1.6716  2.1244
 2466SOL    HW2 7534   2.372   0.673   4.876 -0.2404  3.5753 -1.7583
 2467SOL     OW 7535   4.745   3.156   1.821  0.1543  0.5870 -0.0026
 2467SOL    HW1 7536   4.657   3.192   1.814  0.8566  2.0397 -2.8416
 2467SOL    HW2 7537   4.790   3.215   1.881 -0.4217  0.6095  0.4208
 2468SOL     OW 7538   3.215   4.878   2.711  0.5402 -0.0629  0.9383
 2468SOL    HW1 7539   3.257   4.879   2.797  2.2316  0.5736  0.1595
 2468SOL    HW2 7540   3.141   4.818   2.720 -0.0739  0.9518  3.1568
 2469SOL     OW 7541   1.788   0.536   0.153 -0.6955  0.4001 -0.0692
 2469SOL    HW1 7542   1.784   0.493   0.067 -1.4050 -0.5767  0.4289
 2469SOL    HW2 7543   1.729   0.611   0.145 -0.5227  0.4935 -0.5259
 2470SOL     OW 7544   0.451   0.747   4.240 -0.0256 -0.0077  0.4778
 2470SOL    HW1 7545   0.472   0.811   4.172  0.0309 -0.2046  0.3091
 2470SOL    HW2 7546   0.413   0.673   4.193 -2.8650  1.0517  0.9060
 2471SOL     OW 7547   4.309   1.893   4.037 -0.0211 -0.1028  0.2055
 2471SOL    HW1 7548   4.389   1.867   4.084  1.8406  1.0767 -2.1039
 2471SOL    HW2 7549   4.274   1.966   4.088  1.1989  0.3263  0.4493
 2472SOL     OW 7550   2.260   0.081   3.996  0.0569 -0.0568 -0.1888
 2472SOL    HW1 7551   2.253   0.109   3.905  0.0121 -0.4208 -0.3004
 2472SOL    HW2 7552   2.342   0.032   4.000 -0.8310 -1.6390 -0.4795
 2473SOL     OW 7553   0.451   2.246   5.002 -0.5327  0.3021  0.1834
 2473SOL    HW1 7554   0.532   2.225   4.956 -0.5694 -1.0596  0.6992
 2473SOL    HW2 7555   0.400   2.297   4.939 -0.4014 -1.1378 -1.1617
 2474SOL     OW 7556   4.851   1.981   3.385 -0.6711  0.1629  0.2013
 2474SOL    HW1 7557   4.814   1.964   3.471 -1.7788 -0.5768 -0.3921
 2474SOL    HW2 7558   4.944   1.962   3.394 -0.2912  2.4279  1.8332
 2475SOL     OW 7559   0.587   1.870   3.593  0.4766  0.1852 -0.8063
 2475SOL    HW1 7560   0.559   1.870   3.502 -1.1516 -1.5595 -0.3725
 2475SOL    HW2 7561   0.517   1.915   3.640  0.6036 -0.1658 -0.2617
 2476SOL     OW 7562   3.958   1.543   3.940  0.5648 -0.6486 -0.6224
 2476SOL    HW1 7563   3.994   1.526   3.853  2.3040 -3.7209  0.5468
 2476SOL    HW2 7564   3.863   1.532   3.929  0.5717  0.6239 -2.3774
 2477SOL     OW 7565   2.308   2.738   2.851 -0.0123 -0.2438  0.2991
 2477SOL    HW1 7566   2.355   2.750   2.768 -1.4971  0.1615 -0.5069
 2477SOL    HW2 7567   2.320   2.645   2.871  0.0827 -0.4323 -0.5545
 2478SOL     OW 7568   4.223   4.071   0.579  0.0961 -0.2767 -0.2664
 2478SOL    HW1 7569   4.318   4.064   0.587  0.2303  0.7539 -0.8610
 2478SOL    HW2 7570   4.205   4.165   0.581 -0.9895 -0.4776  0.6012
 2479SOL     OW 7571   3.238   1.097   2.168  0.2552  0.3687 -0.1758
 2479SOL    HW1 7572   3.193   1.147   2.236  0.9936 -0.2182  0.7756
 2479SOL    HW2 7573   3.329   1.095   2.196  0.5631  0.0353 -1.1461
 2480SOL     OW 7574   3.259   3.607   2.309  0.2975  0.2396 -0.3421
 2480SOL    HW1 7575   3.290   3.568   2.391  0.6007 -3.5552 -2.0335
 2480SOL    HW2 7576   3.338   3.630   2.261  0.1400  1.7146  0.0781
 2481SOL     OW 7577   4.548   3.851   4.560  0.1299  0.2009 -0.6155
 2481SOL    HW1 7578   4.575   3.928   4.510  0.3410  0.1970 -0.5091
 2481SOL    HW2 7579   4.537   3.782   4.495 -1.3803  0.6551 -0.8935
 2482SOL     OW 7580   2.660   3.336   1.411  0.2316  0.0227 -0.2129
 2482SOL    HW1 7581   2.571   3.348   1.379 -0.3100 -0.7411  0.9391
 2482SOL    HW2 7582   2.679   3.243   1.396  0.4301 -0.0568  0.4913
 2483SOL     OW 7583   1.607   2.318   4.261  0.3403 -0.8583  0.0486
 2483SOL    HW1 7584   1.603   2.314   4.356  0.3087 -1.3935  0.0286
 2483SOL    HW2 7585   1.588   2.410   4.240  0.6769 -0.6633  0.5705
 2484SOL     OW 7586   2.411   1.463   0.172  0.0784 -0.1166 -0.3107
 2484SOL    HW1 7587   2.350   1.439   0.102  1.0898 -0.6870 -1.0258
 2484SOL    HW2 7588   2.356   1.503   0.239 -0.9816  0.0603 -1.2486
 2485SOL     OW 7589   5.022   3.899   0.824 -0.3540  0.1029 -0.6654
 2485SOL    HW1 7590   5.034   3.993   0.815  0.7951 -0.0512 -1.0168
 2485SOL    HW2 7591   4.939   3.889   0.870  0.6413  1.3805  1.6418
 2486SOL     OW 7592   4.391   3.919   2.186 -0.0738 -0.1192 -0.0645
 2486SOL    HW1 7593   4.352   3.896   2.102 -0.1832 -0.2925  0.0322
 2486SOL    HW2 7594   4.479   3.882   2.183  0.2883  0.7479 -0.5028
 2487SOL     OW 7595   2.107   2.659   0.438  0.1296  0.3520  0.5545
 2487SOL    HW1 7596   2.107   2.660   0.342  0.7606  0.4873  0.5492
 2487SOL    HW2 7597   2.015   2.660   0.462 -0.0528  2.0143 -0.0475
 2488SOL     OW 7598   1.876   0.933   5.026 -0.0852  0.2338 -0.1324
 2488SOL    HW1 7599   1.839   0.857   4.981 -3.0023  1.5387 -0.1590
 2488SOL    HW2 7600   1.881   1.001   4.958  1.1705  0.4966  0.1999
 2489SOL     OW 7601   0.463   4.971   1.409 -0.4228  0.4532  0.2849
 2489SOL    HW1 7602   0.447   4.968   1.504 -1.4082 -1.2626  0.0987
 2489SOL    HW2 7603   0.547   4.925   1.398 -0.6181  0.0970  0.2722
 2490SOL     OW 7604   1.372   3.606   2.845  0.1624  0.4004  0.2815
 2490SOL    HW1 7605   1.286   3.598   2.803  0.3454  0.1195 -0.0435
 2490SOL    HW2 7606   1.363   3.557   2.927 -1.2695  3.7251  2.3209
 2491SOL     OW 7607   5.032   4.398   2.111  0.1664  0.2559  0.0785
 2491SOL    HW1 7608   4.950   4.366   2.074  0.1324  1.9344 -1.4107
 2491SOL    HW2 7609   5.011   4.420   2.201 -1.1886  1.2047 -0.4510
 2492SOL     OW 7610   0.893   4.183   0.569  0.7582  0.4955 -0.0260
 2492SOL    HW1 7611   0.826   4.251   0.581  0.1293 -0.3108  1.2416
 2492SOL    HW2 7612   0.961   4.226   0.517 -0.3399  1.6080 -0.6082
 2493SOL     OW 7613   4.008   0.708   0.522  0.1989 -0.3554  0.1305
 2493SOL    HW1 7614   3.915   0.729   0.511  0.4847  0.9275 -0.0612
 2493SOL    HW2 7615   4.012   0.660   0.605 -0.5301  0.4307  0.6363
 2494SOL     OW 7616   1.876   3.121   1.852 -0.3215 -0.2675 -0.2469
 2494SOL    HW1 7617   1.948   3.134   1.789  0.0254 -1.0501 -0.0205
 2494SOL    HW2 7618   1.798   3.115   1.798  0.0226 -1.3427 -0.6517
 2495SOL     OW 7619   2.944   1.165   3.381 -0.2107 -0.3547 -0.4324
 2495SOL    HW1 7620   2.980   1.220   3.311  2.0359 -2.5373 -1.1333
 2495SOL    HW2 7621   2.866   1.125   3.342 -1.0445  1.1749 -0.3973
 2496SOL     OW 7622   2.676   2.094   1.778 -0.4101  0.2966 -0.2722
 2496SOL    HW1 7623   2.624   2.168   1.748 -0.0460  0.7884  0.2888
 2496SOL    HW2 7624   2.638   2.018   1.733  0.2755  1.0205 -2.1977
 2497SOL     OW 7625   2.417   0.231   2.273  0.3617  0.3779  0.3775
 2497SOL    HW1 7626   2.431   0.244   2.179  1.8571 -1.6828  0.2322
 2497SOL    HW2 7627   2.358   0.301   2.299  1.3255  2.0800 -1.7367
 2498SOL     OW 7628   3.377   3.056   0.002  0.5059  0.2745 -0.2469
 2498SOL    HW1 7629   3.314   3.045   0.073 -1.8954  1.3189 -2.0412
 2498SOL    HW2 7630   3.438   2.983   0.011 -1.6447 -1.4889  0.9808
 2499SOL     OW 7631   2.468   3.502   2.919  0.0698  0.4105  0.0475
 2499SOL    HW1 7632   2.550   3.488   2.871  0.4713 -0.0811  0.8655
 2499SOL    HW2 7633   2.419   3.421   2.906  0.7049 -0.2296  1.4714
 2500SOL     OW 7634   1.770   0.144   3.004  0.2623 -0.0889 -0.1292
 2500SOL    HW1 7635   1.759   0.131   3.098 -0.6653  0.7919 -0.0911
 2500SOL    HW2 7636   1.681   0.161   2.972  0.6074 -0.0633 -1.1088
 2501SOL     OW 7637   2.680   4.464   1.933  0.1716 -0.5512 -0.2215
 2501SOL    HW1 7638   2.611   4.404   1.960 -1.0841  1.5469  1.6075
 2501SOL    HW2 7639   2.744   4.409   1.888 -0.7384 -3.2598  1.5686
 2502SOL     OW 7640   0.041   1.699   2.069  0.4241  0.3468  0.2944
 2502SOL    HW1 7641   0.053   1.649   1.989  0.7015  0.1495  0.4568
 2502SOL    HW2 7642  -0.047   1.736   2.062  0.5738  0.6192 -0.2610
 2503SOL     OW 7643   3.003   4.332   1.481 -0.6503  0.0077 -0.3683
 2503SOL    HW1 7644   3.073   4.395   1.498 -0.4434 -0.6718  1.5026
 2503SOL    HW2 7645   3.039   4.275   1.413  0.7231 -0.4268  0.6624
 2504SOL     OW 7646   4.577   0.139   0.742  0.6333 -0.5632  0.2091
 2504SOL    HW1 7647   4.661   0.173   0.774  0.1804  1.7447 -0.7954
 2504SOL    HW2 7648   4.595   0.110   0.653  0.6687 -1.4839  0.5113
 2505SOL     OW 7649   3.876   1.222   3.833  0.1627  0.3048  0.5777
 2505SOL    HW1 7650   3.833   1.303   3.807  1.1475  0.7371  0.2211
 2505SOL    HW2 7651   3.926   1.196   3.756 -0.6674 -1.0197  0.4632
 2506SOL     OW 7652   0.225   1.562   3.925 -0.3103 -0.3803  0.7317
 2506SOL    HW1 7653   0.299   1.596   3.975  0.5468 -0.7474 -0.2353
 2506SOL    HW2 7654   0.189   1.492   3.979  0.1420 -0.2921  1.1495
 2507SOL     OW 7655   3.847   2.970   3.072  0.1098 -0.1758 -0.5270
 2507SOL    HW1 7656   3.842   2.985   3.166  1.2700  1.1445 -0.6416
 2507SOL    HW2 7657   3.851   2.875   3.063 -1.1936 -0.3798  0.6575
 2508SOL     OW 7658   4.357   4.342   3.075  0.1549  0.4427  0.2145
 2508SOL    HW1 7659   4.365   4.299   3.160  2.8633 -0.6103 -0.4702
 2508SOL    HW2 7660   4.278   4.303   3.036 -0.8414  0.5759  1.9889
 2509SOL     OW 7661   1.528   1.294   0.146 -0.6551  0.0429 -0.1355
 2509SOL    HW1 7662   1.600   1.298   0.083 -0.2310  2.6019  0.3889
 2509SOL    HW2 7663   1.569   1.275   0.230 -1.0958 -2.2629 -0.3795
 2510SOL     OW 7664   0.858   4.154   0.907 -0.1606 -0.3158  0.0125
 2510SOL    HW1 7665   0.816   4.132   0.824 -0.0849  0.3078 -0.2013
 2510SOL    HW2 7666   0.894   4.241   0.892  0.2626 -0.3978  0.5504
 2511SOL     OW 7667   2.993   1.107   3.673  0.1716 -0.0058 -0.2339
 2511SOL    HW1 7668   3.082   1.111   3.709 -0.0817  1.4128  0.2887
 2511SOL    HW2 7669   3.004   1.134   3.582  0.5387 -1.7673 -0.7461
 2512SOL     OW 7670   3.554  -0.010   0.359 -0.1757 -0.7101 -0.6855
 2512SOL    HW1 7671   3.618   0.061   0.363 -0.4054 -0.4014 -1.9955
 2512SOL    HW2 7672   3.515  -0.012   0.446 -0.4539  1.0684 -0.7260
 2513SOL     OW 7673   2.191   4.320   0.281  0.7046  0.2293 -0.3985
 2513SOL    HW1 7674   2.196   4.415   0.270  2.3982  0.1398 -0.5406
 2513SOL    HW2 7675   2.187   4.307   0.376  0.9961  0.4138 -0.3623
 2514SOL     OW 7676   2.763   2.906   0.511  0.2568 -0.1911  0.1718
 2514SOL    HW1 7677   2.782   2.958   0.589  2.0330  0.0657 -0.3786
 2514SOL    HW2 7678   2.849   2.894   0.469 -0.6827  0.0897 -1.9900
 2515SOL     OW 7679   1.421   4.908   3.110  0.0666  0.1747 -0.6738
 2515SOL    HW1 7680   1.464   4.993   3.109 -0.3258  0.4627  1.6429
 2515SOL    HW2 7681   1.389   4.896   3.020  0.7969  2.1014 -1.2384
 2516SOL     OW 7682   0.089   2.754   0.930  0.2981 -0.3816 -0.5446
 2516SOL    HW1 7683   0.165   2.762   0.987  1.6070 -1.9585 -1.9889
 2516SOL    HW2 7684   0.106   2.813   0.857  0.4424 -1.1508 -1.1516
 2517SOL     OW 7685   1.238   3.327   2.835 -0.3087  0.3400  0.2729
 2517SOL    HW1 7686   1.319   3.311   2.788 -0.5746 -2.8824  0.6950
 2517SOL    HW2 7687   1.263   3.323   2.927 -0.8799 -0.6269  0.4037
 2518SOL     OW 7688   1.316   1.372   2.113  0.3337 -0.1106 -0.6736
 2518SOL    HW1 7689   1.329   1.327   2.030 -0.9385  1.1888 -1.6289
 2518SOL    HW2 7690   1.404   1.382   2.149  0.8214 -1.5759 -1.3490
 2519SOL     OW 7691   0.337   0.957   2.259 -0.4885  0.1649  0.8125
 2519SOL    HW1 7692   0.397   0.882   2.267 -1.3951 -0.5576  0.9749
 2519SOL    HW2 7693   0.390   1.025   2.218  0.5825 -0.2997  1.3805
 2520SOL     OW 7694   3.927   4.400   2.602 -0.2727  0.0185  0.2383
 2520SOL    HW1 7695   3.838   4.366   2.608 -0.1217 -0.1691  2.1063
 2520SOL    HW2 7696   3.969   4.347   2.534 -1.1217 -1.0172  0.5002
 2521SOL     OW 7697   0.845   3.098   3.559  0.4652  0.1784  0.0908
 2521SOL    HW1 7698   0.926   3.048   3.548  0.6383  0.3796  0.4313
 2521SOL    HW2 7699   0.807   3.101   3.471 -0.9174 -2.8411  0.4630
 2522SOL     OW 7700   1.361   1.819   2.854  0.3858 -0.2880  0.0470
 2522SOL    HW1 7701   1.407   1.746   2.897 -0.4949 -0.1216  1.3340
 2522SOL    HW2 7702   1.422   1.893   2.861  1.1668 -0.8144 -1.0111
 2523SOL     OW 7703   0.119   0.155   1.977 -0.2108  0.3804  0.1979
 2523SOL    HW1 7704   0.126   0.065   2.011 -1.3500  0.9200  2.0303
 2523SOL    HW2 7705   0.157   0.151   1.890  0.5837 -1.6889  0.5816
 2524SOL     OW 7706   2.329   0.354   0.449 -0.2106  0.1418  0.3982
 2524SOL    HW1 7707   2.314   0.448   0.450  2.4981  0.7090  2.5234
 2524SOL    HW2 7708   2.261   0.319   0.392 -0.7643  3.4502 -1.2288
 2525SOL     OW 7709   4.872   3.709   2.386 -0.9262  0.0646  0.3132
 2525SOL    HW1 7710   4.894   3.625   2.428 -0.0109 -0.0916 -0.4232
 2525SOL    HW2 7711   4.924   3.774   2.433 -1.9309  0.2918  1.1378
 2526SOL     OW 7712   0.504   0.754   2.297 -0.0246  0.1197 -0.1907
 2526SOL    HW1 7713   0.516   0.697   2.221  0.6203  0.4236 -0.3284
 2526SOL    HW2 7714   0.495   0.694   2.370  0.4654 -0.1684 -0.3589
 2527SOL     OW 7715   1.044   3.538   3.114 -0.5901 -0.5752 -0.6336
 2527SOL    HW1 7716   0.976   3.508   3.054 -0.8842 -1.9507  0.3515
 2527SOL    HW2 7717   1.119   3.482   3.095 -0.0741  0.1982 -0.9420
 2528SOL     OW 7718   0.701   2.430   0.659 -0.2971 -0.2211  0.1542
 2528SOL    HW1 7719   0.628   2.369   0.671  0.2421 -0.9653 -0.2806
 2528SOL    HW2 7720   0.778   2.382   0.689  0.1293  0.2851 -0.1078
 2529SOL     OW 7721   4.062   1.891   0.875  0.4510  0.3507  0.1889
 2529SOL    HW1 7722   3.981   1.861   0.915  0.2360  0.7833  0.0804
 2529SOL    HW2 7723   4.056   1.986   0.876  0.4345  0.3700 -0.8837
 2530SOL     OW 7724   3.779   0.154   1.348 -0.1283 -0.2376  0.9508
 2530SOL    HW1 7725   3.766   0.199   1.264 -0.6332  1.4926  1.9080
 2530SOL    HW2 7726   3.851   0.201   1.390  1.3981 -2.2534  0.7607
 2531SOL     OW 7727   0.436   1.260   4.420 -0.0649 -0.4358  0.3764
 2531SOL    HW1 7728   0.474   1.181   4.461 -0.6224 -0.7856  0.2312
 2531SOL    HW2 7729   0.364   1.227   4.367 -0.7258  0.2407  0.8364
 2532SOL     OW 7730   4.457   0.630   3.099 -0.2270  0.3577  0.6336
 2532SOL    HW1 7731   4.536   0.675   3.069 -0.7783  0.0517 -1.4244
 2532SOL    HW2 7732   4.475   0.538   3.084 -0.8013  0.2501  0.5779
 2533SOL     OW 7733   4.454   0.054   4.904 -0.5634  0.4546 -0.2647
 2533SOL    HW1 7734   4.399   0.006   4.966  1.0253  0.2025  1.0265
 2533SOL    HW2 7735   4.498  -0.015   4.854  1.3813  0.4541  1.2906
 2534SOL     OW 7736   4.256   2.530   4.163  0.4357 -0.5632 -0.0775
 2534SOL    HW1 7737   4.270   2.620   4.193 -1.1681 -0.1619 -0.4598
 2534SOL    HW2 7738   4.297   2.528   4.076  1.1754 -0.4372  0.2650
 2535SOL     OW 7739   1.088   0.327   1.621 -0.7247 -0.1862  0.1798
 2535SOL    HW1 7740   1.098   0.258   1.556 -2.4131 -2.3579  2.0412
 2535SOL    HW2 7741   0.994   0.346   1.621 -0.5054  0.9864  0.7960
 2536SOL     OW 7742   4.396   1.139   0.927  0.4211  0.0922 -0.2377
 2536SOL    HW1 7743   4.372   1.230   0.911  1.6721  0.2988 -1.0475
 2536SOL    HW2 7744   4.436   1.139   1.014  0.9804  0.4423 -0.4870
 2537SOL     OW 7745   0.765   2.048   0.145 -0.0733 -0.4572  0.2083
 2537SOL    HW1 7746   0.690   2.039   0.205 -0.5615  1.7619  0.0365
 2537SOL    HW2 7747   0.776   2.143   0.135  0.2573 -0.7122 -2.8755
 2538SOL     OW 7748   4.312   4.709   4.893 -0.0626  0.1371  0.6722
 2538SOL    HW1 7749   4.354   4.629   4.863  0.2179  1.3122 -2.4525
 2538SOL    HW2 7750   4.380   4.754   4.943  0.5962 -0.4354  0.3126
 2539SOL     OW 7751   1.019   2.194   4.511  0.2159  0.1857  0.1332
 2539SOL    HW1 7752   0.953   2.142   4.464 -0.6458  1.0675  0.3295
 2539SOL    HW2 7753   0.990   2.285   4.500  1.0880  0.5504  0.7210
 2540SOL     OW 7754   4.635   2.056   3.277 -0.5185  0.0628  0.0072
 2540SOL    HW1 7755   4.618   2.117   3.349 -0.5495  0.1260 -0.0533
 2540SOL    HW2 7756   4.715   2.011   3.301  0.1937  0.9944 -0.5226
 2541SOL     OW 7757   4.888   4.442   0.370  0.1311  0.2608  0.1072
 2541SOL    HW1 7758   4.892   4.441   0.466 -1.0176 -0.7225  0.1733
 2541SOL    HW2 7759   4.821   4.377   0.349  0.3155  0.5267 -1.3670
 2542SOL     OW 7760   3.589   4.291   3.180 -0.5066 -0.0105 -0.4777
 2542SOL    HW1 7761   3.577   4.340   3.262  0.1407 -0.0079 -0.3822
 2542SOL    HW2 7762   3.512   4.234   3.176  0.1854 -1.1217  0.9199
 2543SOL     OW 7763   3.041   2.236   1.147 -0.2281  0.2592 -0.4218
 2543SOL    HW1 7764   2.964   2.291   1.136  1.6011  3.0497 -0.1481
 2543SOL    HW2 7765   3.060   2.203   1.059 -0.9477  0.6667 -0.7362
 2544SOL     OW 7766   4.577   4.233   2.028 -0.1281 -0.6319 -0.1049
 2544SOL    HW1 7767   4.584   4.328   2.040 -3.0299 -0.1060 -1.7163
 2544SOL    HW2 7768   4.560   4.200   2.116 -1.8850  0.7371  0.1254
 2545SOL     OW 7769   2.942   2.624   4.192 -0.4737 -0.2577  0.4574
 2545SOL    HW1 7770   2.885   2.694   4.225  1.2100  0.8719  1.1158
 2545SOL    HW2 7771   2.918   2.617   4.099  0.0263  2.0040  0.0846
 2546SOL     OW 7772   0.712   2.643   1.092 -0.0664  0.4191  0.2947
 2546SOL    HW1 7773   0.774   2.710   1.062 -0.0711 -0.2956 -1.3984
 2546SOL    HW2 7774   0.739   2.563   1.047 -0.8153 -0.4391  1.3345
 2547SOL     OW 7775   1.859   4.948   4.277  0.0486 -0.2554 -0.2167
 2547SOL    HW1 7776   1.849   5.029   4.327 -0.9721  0.2107 -1.1302
 2547SOL    HW2 7777   1.947   4.916   4.299  0.8452  1.6006 -0.5582
 2548SOL     OW 7778   1.855   1.682   2.491  0.1028 -0.8343 -0.5874
 2548SOL    HW1 7779   1.783   1.735   2.525 -0.1174 -2.5706  1.8560
 2548SOL    HW2 7780   1.921   1.746   2.465 -0.9347  0.6971  0.3601
 2549SOL     OW 7781   0.869   0.283   2.912 -0.6109  0.6653 -0.4900
 2549SOL    HW1 7782   0.928   0.227   2.962 -1.5700  0.7017  0.7292
 2549SOL    HW2 7783   0.918   0.365   2.901  0.3267  0.0356 -1.2488
 2550SOL     OW 7784   0.846   3.433   2.962  0.8741  0.5085 -0.0977
 2550SOL    HW1 7785   0.843   3.338   2.947 -2.2421  0.1501  1.9253
 2550SOL    HW2 7786   0.814   3.471   2.881  2.9112 -0.0205 -1.2312
 2551SOL     OW 7787   3.632   1.551   0.653 -0.3261  0.0806  0.0318
 2551SOL    HW1 7788   3.595   1.489   0.715  0.2170 -1.1418 -0.8124
 2551SOL    HW2 7789   3.726   1.550   0.671 -0.0293 -1.0328 -1.3995
 2552SOL     OW 7790   0.573   4.236   4.794 -0.8417  0.1074 -0.0144
 2552SOL    HW1 7791   0.601   4.146   4.815 -4.0710 -0.9310  0.3726
 2552SOL    HW2 7792   0.636   4.292   4.840  1.4355 -1.8839 -0.4743
 2553SOL     OW 7793   2.834   1.809   0.651 -0.1897 -0.1613  0.4155
 2553SOL    HW1 7794   2.836   1.809   0.747 -1.0282 -0.1447  0.4349
 2553SOL    HW2 7795   2.923   1.784   0.626 -0.4364 -2.0794  1.2246
 2554SOL     OW 7796   0.211   0.594   0.459 -0.0689  0.5088  0.3641
 2554SOL    HW1 7797   0.298   0.599   0.420 -0.0786  1.5899  0.4502
 2554SOL    HW2 7798   0.189   0.685   0.481 -1.4113  0.3264 -0.1034
 2555SOL     OW 7799   3.974   1.831   3.269 -0.0817 -0.0536  0.0706
 2555SOL    HW1 7800   3.938   1.792   3.190 -1.5030  1.9852 -0.3750
 2555SOL    HW2 7801   3.904   1.888   3.302  0.4470 -0.8685  2.8465
 2556SOL     OW 7802   4.419   2.709   0.564 -0.0478 -0.9178  0.6717
 2556SOL    HW1 7803   4.428   2.630   0.617 -0.2469 -0.3896  1.5031
 2556SOL    HW2 7804   4.324   2.724   0.560  0.0667  0.4346  2.2642
 2557SOL     OW 7805   4.099   3.749   1.590 -0.5791  0.0671 -0.3307
 2557SOL    HW1 7806   4.048   3.689   1.536 -1.9285  2.1222 -1.5076
 2557SOL    HW2 7807   4.172   3.776   1.535 -0.8871  0.6957 -0.4506
 2558SOL     OW 7808   4.170   0.930   3.349  0.3743  0.0188  0.6487
 2558SOL    HW1 7809   4.214   0.883   3.420  0.0512 -1.3205 -0.0188
 2558SOL    HW2 7810   4.090   0.965   3.389 -0.2501 -1.4760  0.7509
 2559SOL     OW 7811   1.975   4.000   4.662  0.6269  0.0473  0.4698
 2559SOL    HW1 7812   1.987   4.087   4.700 -1.2919 -0.3636  2.2437
 2559SOL    HW2 7813   1.900   3.964   4.709 -0.7625 -1.2977 -2.4978
 2560SOL     OW 7814   4.652   0.300   0.226  0.3377 -0.1465  0.0148
 2560SOL    HW1 7815   4.645   0.227   0.165 -0.0482 -1.4552  1.5623
 2560SOL    HW2 7816   4.570   0.298   0.275  1.3446 -0.2420  1.7654
 2561SOL     OW 7817   4.293   4.258   2.663 -0.2590 -0.0045 -0.2573
 2561SOL    HW1 7818   4.332   4.342   2.637  0.0424 -0.1464 -0.2726
 2561SOL    HW2 7819   4.208   4.257   2.620 -0.4811  0.5187  0.1612
 2562SOL     OW 7820   1.345   3.704   4.730 -0.3391 -0.2887  0.7517
 2562SOL    HW1 7821   1.327   3.772   4.795 -0.4663  0.3704  0.0478
 2562SOL    HW2 7822   1.260   3.665   4.711 -0.0288 -1.9751  2.5387
 2563SOL     OW 7823   0.100   2.326   0.379 -0.4473  0.4219 -0.0541
 2563SOL    HW1 7824   0.176   2.283   0.416  0.7040  0.6683 -2.0226
 2563SOL    HW2 7825   0.084   2.401   0.436 -0.5878 -0.8290  1.6125
 2564SOL     OW 7826   3.013   0.234   2.423  0.4166 -0.1626  0.4487
 2564SOL    HW1 7827   2.963   0.215   2.343  1.4215 -0.2971 -0.1537
 2564SOL    HW2 7828   2.970   0.181   2.491 -0.1791 -0.3709 -0.0778
 2565SOL     OW 7829   3.473   2.365   0.987  0.0053  0.2440 -0.5856
 2565SOL    HW1 7830   3.437   2.277   0.992  0.6498 -0.2295 -3.0696
 2565SOL    HW2 7831   3.554   2.361   1.039 -2.0639  0.6981  3.0560
 2566SOL     OW 7832   4.860   2.168   1.938  0.1443 -0.4293 -0.1846
 2566SOL    HW1 7833   4.956   2.159   1.934  0.3133  0.9034  0.2028
 2566SOL    HW2 7834   4.828   2.082   1.965  1.2804 -0.7201  0.2888
 2567SOL     OW 7835   1.770   2.914   1.593  0.3145  0.2406  0.1935
 2567SOL    HW1 7836   1.741   2.994   1.636 -2.2825  0.6373 -1.9962
 2567SOL    HW2 7837   1.691   2.860   1.588  1.4993 -1.5418 -0.3414
 2568SOL     OW 7838   1.339   1.931   1.445 -0.3299 -0.0068  0.1212
 2568SOL    HW1 7839   1.254   1.958   1.481 -0.1018 -0.0886  0.7307
 2568SOL    HW2 7840   1.403   1.962   1.508  0.2243  1.3919 -1.0740
 2569SOL     OW 7841   4.262   4.124   3.457 -0.2476  0.2422  0.4127
 2569SOL    HW1 7842   4.293   4.113   3.367 -0.3480  1.4197  0.2243
 2569SOL    HW2 7843   4.339   4.155   3.505 -0.8586  2.2895  0.1364
 2570SOL     OW 7844   4.465   4.537   1.578  0.0985 -0.5393  0.2178
 2570SOL    HW1 7845   4.410   4.601   1.623 -0.5428 -0.5574 -0.5229
 2570SOL    HW2 7846   4.451   4.554   1.485  1.0274 -0.8208  0.0122
 2571SOL     OW 7847   2.306   1.659   2.914  1.1753 -0.2586 -0.1027
 2571SOL    HW1 7848   2.399   1.640   2.898  1.2312  1.2438 -2.0410
 2571SOL    HW2 7849   2.260   1.614   2.843  0.7609  1.4701 -0.9952
 2572SOL     OW 7850   1.470   1.708   4.568  0.1571 -0.1605 -0.1060
 2572SOL    HW1 7851   1.399   1.645   4.571  0.0112 -0.0340 -0.7505
 2572SOL    HW2 7852   1.547   1.659   4.597 -0.3931  0.0130  1.7699
 2573SOL     OW 7853   3.684   3.345   2.757  0.0073  0.3018  0.3522
 2573SOL    HW1 7854   3.740   3.349   2.680  1.4729  0.8541  1.3971
 2573SOL    HW2 7855   3.713   3.266   2.804  0.5009  1.0366  1.3154
 2574SOL     OW 7856   4.766   0.524   1.962 -0.2565  0.1601 -0.4440
 2574SOL    HW1 7857   4.802   0.436   1.972 -3.7977 -2.0460 -3.9814
 2574SOL    HW2 7858   4.821   0.565   1.895 -0.2744 -0.5364 -0.8946
 2575SOL     OW 7859   0.343   0.430   3.301 -0.1858 -0.4398  0.0177
 2575SOL    HW1 7860   0.296   0.500   3.346 -0.5758 -0.3846 -0.4612
 2575SOL    HW2 7861   0.362   0.466   3.214  0.1365 -0.7171 -0.0320
 2576SOL     OW 7862   3.497   1.646   3.953 -0.4284 -0.0888 -0.3127
 2576SOL    HW1 7863   3.479   1.703   3.878 -0.7155  0.6678  0.3177
 2576SOL    HW2 7864   3.479   1.558   3.921 -1.6065  0.3228 -0.8324
 2577SOL     OW 7865   3.392   1.837   3.306  0.2876 -0.3331  0.1721
 2577SOL    HW1 7866   3.435   1.868   3.227 -1.1123  0.5334 -0.2927
 2577SOL    HW2 7867   3.463   1.821   3.368  1.5059 -1.8374 -1.4960
 2578SOL     OW 7868   3.976   1.694   1.188  0.3695 -0.6138 -0.2794
 2578SOL    HW1 7869   4.068   1.721   1.186 -0.3098  2.0752 -0.0777
 2578SOL    HW2 7870   3.976   1.604   1.157  3.1571 -0.9990  0.6086
 2579SOL     OW 7871   0.357   2.313   1.514 -0.0943  0.5696  0.4011
 2579SOL    HW1 7872   0.284   2.262   1.479  1.1847 -0.2723 -1.1845
 2579SOL    HW2 7873   0.321   2.356   1.591 -1.8112 -1.0915  0.6093
 2580SOL     OW 7874   0.945   0.220   4.275 -0.0311 -0.1781 -0.1486
 2580SOL    HW1 7875   0.881   0.150   4.269 -0.4783 -0.1030  2.5671
 2580SOL    HW2 7876   1.023   0.185   4.233 -0.8336 -1.5524 -0.5542
 2581SOL     OW 7877   1.802   3.833   3.258 -0.3465 -0.4879 -1.2521
 2581SOL    HW1 7878   1.787   3.814   3.351 -0.6917  1.2236 -0.9173
 2581SOL    HW2 7879   1.823   3.748   3.219  0.0422 -1.2134  0.4325
 2582SOL     OW 7880   4.719   1.178   3.333 -0.4420  0.3467  0.0527
 2582SOL    HW1 7881   4.724   1.222   3.248  1.1562  2.3119  1.0808
 2582SOL    HW2 7882   4.647   1.222   3.378 -1.2085 -0.6135 -0.1878
 2583SOL     OW 7883   4.295   2.543   0.302  0.1103  0.0854  0.4208
 2583SOL    HW1 7884   4.334   2.569   0.385 -0.7814 -0.5351  1.0433
 2583SOL    HW2 7885   4.231   2.611   0.282 -0.1586 -0.1212  0.5823
 2584SOL     OW 7886   1.069   3.402   3.384  0.0739  0.3077  0.8642
 2584SOL    HW1 7887   0.979   3.409   3.416 -1.0355 -3.1991 -0.9438
 2584SOL    HW2 7888   1.077   3.473   3.319 -1.4602  0.5915  0.9410
 2585SOL     OW 7889   2.017   2.190   0.761 -0.1070 -0.0472 -0.1723
 2585SOL    HW1 7890   1.953   2.124   0.734 -0.4890 -0.9814  2.6962
 2585SOL    HW2 7891   2.009   2.194   0.857  0.9111  3.1682 -0.0883
 2586SOL     OW 7892   1.280   4.366   3.021  0.1525  0.5041 -0.0312
 2586SOL    HW1 7893   1.261   4.351   3.113  0.1308 -0.1291 -0.1316
 2586SOL    HW2 7894   1.242   4.452   3.002  2.2705  1.7820  1.1425
 2587SOL     OW 7895   2.680   3.922   4.803 -0.0769 -0.1290  0.5313
 2587SOL    HW1 7896   2.757   3.954   4.756  0.4731  2.0835  2.7330
 2587SOL    HW2 7897   2.691   3.826   4.804  0.5531 -0.2017 -2.4994
 2588SOL     OW 7898   2.384   0.780   1.524  0.6619 -0.0825  0.1660
 2588SOL    HW1 7899   2.341   0.767   1.609  0.0298  2.7083  0.3924
 2588SOL    HW2 7900   2.326   0.737   1.461 -0.8840  0.9170  0.8209
 2589SOL     OW 7901   4.018   2.996   2.242 -0.0263 -0.0938  0.3525
 2589SOL    HW1 7902   4.000   3.050   2.166 -0.4087  0.8484  1.1002
 2589SOL    HW2 7903   4.109   3.015   2.264 -0.1047  0.1109  0.5036
 2590SOL     OW 7904   1.853   4.289   4.598  0.3514  0.0286 -0.4565
 2590SOL    HW1 7905   1.798   4.346   4.544 -0.9395 -1.1148 -0.4019
 2590SOL    HW2 7906   1.930   4.271   4.544 -0.3793 -0.1555 -1.4521
 2591SOL     OW 7907   0.739   3.169   3.294  0.0167 -0.3685 -0.3865
 2591SOL    HW1 7908   0.780   3.119   3.224  0.3320 -1.2495  0.4083
 2591SOL    HW2 7909   0.729   3.257   3.258  1.3075 -0.4958 -1.1023
 2592SOL     OW 7910   0.998   0.612   3.272  0.6805 -0.2910  0.2682
 2592SOL    HW1 7911   1.033   0.532   3.233  0.3478 -0.2541 -0.1155
 2592SOL    HW2 7912   0.904   0.607   3.255  0.6550  0.1706  0.2686
 2593SOL     OW 7913   4.508   1.388   3.693 -0.0190  0.4070 -0.6672
 2593SOL    HW1 7914   4.508   1.379   3.788  0.1956  1.0135 -0.6079
 2593SOL    HW2 7915   4.592   1.429   3.672  0.4321 -0.7511 -1.2257
 2594SOL     OW 7916   3.347   2.390   0.711 -0.2070  0.2570 -0.6148
 2594SOL    HW1 7917   3.443   2.388   0.715 -0.1805  1.7114  1.7737
 2594SOL    HW2 7918   3.322   2.455   0.777 -2.9119 -1.0448 -0.2249
 2595SOL     OW 7919   1.796   1.672   3.746  0.3507  0.1070  0.3073
 2595SOL    HW1 7920   1.886   1.697   3.723 -0.1019 -1.2112 -3.6586
 2595SOL    HW2 7921   1.803   1.581   3.774  0.2142 -0.3186 -0.9672
 2596SOL     OW 7922   4.352   1.400   1.828 -0.2590  0.1942 -0.0097
 2596SOL    HW1 7923   4.366   1.324   1.885  0.8983  0.2947 -0.1450
 2596SOL    HW2 7924   4.274   1.377   1.777  0.6290 -1.3357 -0.7432
 2597SOL     OW 7925   1.659   1.778   0.314  0.5247  0.3473  0.2655
 2597SOL    HW1 7926   1.659   1.836   0.237 -2.3972  0.8926  0.5567
 2597SOL    HW2 7927   1.635   1.692   0.279  0.5713  0.2922  0.3717
 2598SOL     OW 7928   1.518   4.741   1.559 -0.1682  0.5802  0.9823
 2598SOL    HW1 7929   1.581   4.683   1.516  0.0148  1.3148  0.2273
 2598SOL    HW2 7930   1.546   4.744   1.651 -1.1001 -1.7362  1.4141
 2599SOL     OW 7931   1.532   4.680   4.892 -0.1721 -0.1303 -0.2397
 2599SOL    HW1 7932   1.464   4.677   4.824 -0.8392  1.8307  0.2687
 2599SOL    HW2 7933   1.507   4.610   4.953 -1.2529  0.0112 -0.4969
 2600SOL     OW 7934   0.098   1.468   1.932 -0.6291  0.0358 -0.1414
 2600SOL    HW1 7935   0.007   1.467   1.902 -1.0706  2.2180  0.9614
 2600SOL    HW2 7936   0.107   1.388   1.983 -2.8036  1.0603  2.0457
 2601SOL     OW 7937   1.895   0.085   0.967 -0.2884 -0.5427 -0.4872
 2601SOL    HW1 7938   1.981   0.125   0.951  0.0643 -1.3235 -0.6552
 2601SOL    HW2 7939   1.909   0.030   1.044 -0.9063  0.0780  0.0735
 2602SOL     OW 7940   4.657   3.977   3.247 -0.6632  0.0316  0.2168
 2602SOL    HW1 7941   4.675   3.923   3.324  0.7405 -0.4424 -0.4199
 2602SOL    HW2 7942   4.579   3.937   3.208  0.6308 -1.9121 -0.5276
 2603SOL     OW 7943   4.720   2.524   1.585  0.0108 -0.3114 -0.3788
 2603SOL    HW1 7944   4.645   2.583   1.577  0.9140  1.3296  1.9912
 2603SOL    HW2 7945   4.760   2.524   1.498 -1.4621  0.5474 -1.0967
 2604SOL     OW 7946   3.591   4.821   1.384 -0.1591  0.3825  0.3471
 2604SOL    HW1 7947   3.548   4.895   1.428  0.4313  0.2036  1.2670
 2604SOL    HW2 7948   3.523   4.754   1.378 -0.4251  0.6410  0.4185
 2605SOL     OW 7949   1.944   1.107   3.492 -0.3036  0.5314  0.5633
 2605SOL    HW1 7950   1.960   1.185   3.438  1.4565 -0.0182  0.2246
 2605SOL    HW2 7951   2.004   1.042   3.458 -1.6387 -0.9594  0.9560
 2606SOL     OW 7952   0.094   1.938   0.702 -0.0297 -0.0590  0.1111
 2606SOL    HW1 7953   0.010   1.969   0.667  0.9613  1.4239 -1.0648
 2606SOL    HW2 7954   0.070   1.870   0.766 -2.3252  2.5952  2.3487
 2607SOL     OW 7955   3.970   1.703   3.522  1.0487 -0.1349  0.0263
 2607SOL    HW1 7956   3.921   1.738   3.597 -0.4178 -0.8132 -0.5669
 2607SOL    HW2 7957   3.983   1.778   3.465  0.3824  0.0082  0.0464
 2608SOL     OW 7958   1.016   3.717   1.621  0.3425  0.1890 -0.3733
 2608SOL    HW1 7959   1.039   3.714   1.714  1.4554  0.7486 -0.6166
 2608SOL    HW2 7960   0.965   3.797   1.612 -1.0180 -0.5992  0.0009
 2609SOL     OW 7961   2.829   2.706   1.319  0.1840  0.0551 -0.0845
 2609SOL    HW1 7962   2.758   2.738   1.264  0.0721 -0.2207 -0.1009
 2609SOL    HW2 7963   2.793   2.629   1.363  0.3464  0.1381  0.1999
 2610SOL     OW 7964   4.529   3.243   2.061  0.2225 -0.6692 -0.4814
 2610SOL    HW1 7965   4.543   3.156   2.023  1.4880 -0.3635 -0.7705
 2610SOL    HW2 7966   4.449   3.275   2.020  0.1945 -1.3753 -0.9929
 2611SOL     OW 7967   2.759   3.903   2.818  0.1674  0.2726 -0.2095
 2611SOL    HW1 7968   2.851   3.910   2.845 -0.4432 -1.1851  2.6996
 2611SOL    HW2 7969   2.732   3.816   2.848 -2.7267  1.4820  1.1203
 2612SOL     OW 7970   2.730   3.952   3.219  0.4753  0.7606  0.8802
 2612SOL    HW1 7971   2.635   3.939   3.211  0.8274 -1.5247 -0.4181
 2612SOL    HW2 7972   2.740   4.047   3.227 -1.9198  1.0597  1.2609
 2613SOL     OW 7973   3.090   2.526   2.876 -0.1255  1.3495 -0.1183
 2613SOL    HW1 7974   3.004   2.568   2.883 -1.3558 -0.5918 -2.2903
 2613SOL    HW2 7975   3.122   2.552   2.790  3.1989  4.8173  1.8268
 2614SOL     OW 7976   1.647   2.589   4.453  0.1349 -0.2133 -0.5602
 2614SOL    HW1 7977   1.700   2.608   4.530 -1.8222  1.4336  0.4914
 2614SOL    HW2 7978   1.695   2.629   4.380  1.4025 -0.7093 -0.0256
 2615SOL     OW 7979   0.804   2.862   0.117  0.4109 -0.4462 -1.1068
 2615SOL    HW1 7980   0.783   2.815   0.198  0.1724 -2.1180 -2.1048
 2615SOL    HW2 7981   0.899   2.858   0.111  0.6416  1.4999  0.0929
 2616SOL     OW 7982   0.299   4.316   2.079 -0.5485 -0.9074 -0.4201
 2616SOL    HW1 7983   0.204   4.319   2.084 -0.6190 -0.1089 -1.8194
 2616SOL    HW2 7984   0.327   4.299   2.169 -1.9559  0.6549  0.3784
 2617SOL     OW 7985   3.310   0.135   4.912  0.5359 -0.4838  0.7726
 2617SOL    HW1 7986   3.350   0.055   4.946 -0.7344 -1.1627  0.7383
 2617SOL    HW2 7987   3.329   0.201   4.979 -0.1986 -1.3315  1.8700
 2618SOL     OW 7988   3.801   2.990   3.357 -0.2719 -0.8211 -0.9443
 2618SOL    HW1 7989   3.868   2.947   3.409 -1.0369  1.2619  2.0396
 2618SOL    HW2 7990   3.722   2.938   3.371 -0.4134 -0.4136 -0.1498
 2619SOL     OW 7991   3.949   4.387   0.758  0.1032 -0.0936 -0.4112
 2619SOL    HW1 7992   4.036   4.408   0.794 -0.1406 -0.6255  0.5280
 2619SOL    HW2 7993   3.963   4.381   0.664  1.3097 -1.1184 -0.2053
 2620SOL     OW 7994   0.563   3.733   3.341  0.1383  0.4394  0.0170
 2620SOL    HW1 7995   0.534   3.643   3.332  2.3065 -0.2766 -0.3092
 2620SOL    HW2 7996   0.491   3.785   3.305  0.0035 -1.2835 -2.4519
 2621SOL     OW 7997   2.395   2.073   3.857  0.1765 -0.2980 -0.0426
 2621SOL    HW1 7998   2.309   2.031   3.862 -0.5566  1.1452 -0.0551
 2621SOL    HW2 7999   2.449   2.010   3.810 -1.0043 -1.0416 -0.4592
 2622SOL     OW 8000   4.585   1.233   0.449 -0.0462 -0.2789 -0.4227
 2622SOL    HW1 8001   4.672   1.273   0.454  0.0883 -0.4874 -1.0126
 2622SOL    HW2 8002   4.588   1.162   0.514 -0.5546  1.1246  1.2054
 2623SOL     OW 8003   0.713   2.366   2.113 -0.0964  0.1079 -0.0981
 2623SOL    HW1 8004   0.800   2.335   2.088 -1.0299 -1.8781 -1.1328
 2623SOL    HW2 8005   0.704   2.451   2.069  1.0877  0.0635 -0.4546
 2624SOL     OW 8006   3.817   3.545   2.990  0.1728  0.0226 -0.2545
 2624SOL    HW1 8007   3.763   3.474   2.958  0.0964  0.5355 -1.3040
 2624SOL    HW2 8008   3.870   3.506   3.060  0.4963 -1.1907 -1.1555
 2625SOL     OW 8009   0.044   1.774   4.062  0.0414 -0.1637  0.2683
 2625SOL    HW1 8010   0.090   1.775   3.978 -1.3153 -0.0686 -0.5111
 2625SOL    HW2 8011   0.091   1.837   4.116  0.8725 -0.1354 -0.4542
 2626SOL     OW 8012   3.693   4.352   4.885  0.0168 -0.1034 -0.2708
 2626SOL    HW1 8013   3.610   4.306   4.900 -0.1140  0.6835  1.6539
 2626SOL    HW2 8014   3.758   4.302   4.933  0.6434 -0.5470 -1.5346
 2627SOL     OW 8015   3.981   3.361   3.150  0.0057  0.5494  0.0914
 2627SOL    HW1 8016   3.904   3.323   3.193 -0.4991  1.2623 -0.1723
 2627SOL    HW2 8017   4.055   3.336   3.206 -0.5541  0.8715  0.9810
 2628SOL     OW 8018   4.793   3.053   4.598 -0.2405  0.1409  0.4888
 2628SOL    HW1 8019   4.718   3.109   4.575 -0.1331  0.8728  1.8194
 2628SOL    HW2 8020   4.850   3.057   4.521 -0.1532  2.0231  0.6031
 2629SOL     OW 8021   3.172   1.123   1.423  0.2390 -0.4672 -0.2769
 2629SOL    HW1 8022   3.231   1.141   1.496 -0.3335 -1.0805  0.3537
 2629SOL    HW2 8023   3.192   1.033   1.397  0.5624 -0.1928 -0.9999
 2630SOL     OW 8024   3.651   0.919   3.513  0.3797  0.2752 -0.0073
 2630SOL    HW1 8025   3.586   0.898   3.580 -0.9635  0.6496 -1.1501
 2630SOL    HW2 8026   3.626   0.867   3.437  2.3619 -0.7686 -0.0278
 2631SOL     OW 8027   2.242   3.562   2.727  0.1295  0.5839 -0.2275
 2631SOL    HW1 8028   2.310   3.495   2.717  0.1540  0.3113  1.5463
 2631SOL    HW2 8029   2.160   3.514   2.712  0.0697 -0.1721  2.1824
 2632SOL     OW 8030   4.434   1.447   1.160 -0.3027  0.3649 -0.5834
 2632SOL    HW1 8031   4.347   1.411   1.176 -0.4472  1.7888  2.5879
 2632SOL    HW2 8032   4.493   1.372   1.162 -1.2992 -0.4982 -1.8568
 2633SOL     OW 8033   4.582   2.206   0.388 -0.2404  0.9362  0.2918
 2633SOL    HW1 8034   4.664   2.161   0.368 -1.6861 -1.3974 -0.8301
 2633SOL    HW2 8035   4.573   2.272   0.320  0.6841  1.2201  0.4319
 2634SOL     OW 8036   2.713   3.031   0.791  1.2363 -0.4364 -0.3651
 2634SOL    HW1 8037   2.720   3.019   0.886 -1.1723 -3.3735 -0.4102
 2634SOL    HW2 8038   2.635   3.086   0.780  3.0045  2.1863 -0.6892
 2635SOL     OW 8039   3.055   0.695   4.631 -0.2209 -0.1576 -0.5389
 2635SOL    HW1 8040   3.008   0.612   4.628  0.7095 -0.8546  1.8601
 2635SOL    HW2 8041   3.132   0.678   4.685  1.0750  1.7853 -1.6246
 2636SOL     OW 8042   4.019   0.627   1.509  0.2216  0.4497 -0.0405
 2636SOL    HW1 8043   3.971   0.710   1.505  1.0929  1.0082  0.7326
 2636SOL    HW2 8044   3.963   0.570   1.562 -0.4477  0.4771 -0.6916
 2637SOL     OW 8045   4.412   3.364   1.804 -0.5617  0.8667  0.5633
 2637SOL    HW1 8046   4.331   3.377   1.755 -0.6619  1.3443  0.8507
 2637SOL    HW2 8047   4.433   3.271   1.792 -0.0814  1.1705 -1.1613
 2638SOL     OW 8048   0.183   1.260   0.155 -0.4541  0.0588  0.1718
 2638SOL    HW1 8049   0.267   1.306   0.164 -0.7618  0.4603  1.1396
 2638SOL    HW2 8050   0.179   1.202   0.230 -0.6168 -0.6898 -0.4007
 2639SOL     OW 8051   4.907   0.302   1.998  0.1812  0.1936 -0.7178
 2639SOL    HW1 8052   4.982   0.243   2.005 -1.5739 -2.2267 -1.1486
 2639SOL    HW2 8053   4.889   0.307   1.904  1.0051  2.4337 -0.8015
 2640SOL     OW 8054   0.796   4.663   0.534 -0.3932 -0.3236 -0.0543
 2640SOL    HW1 8055   0.758   4.650   0.447  2.2371  0.6963 -1.4842
 2640SOL    HW2 8056   0.760   4.747   0.563 -2.0693 -1.1432  0.3530
 2641SOL     OW 8057   3.456   3.661   1.416 -0.2355 -0.3166 -0.2945
 2641SOL    HW1 8058   3.454   3.573   1.453  1.3278 -0.5067 -0.5756
 2641SOL    HW2 8059   3.482   3.717   1.489  0.7452 -0.3931 -0.5657
 2642SOL     OW 8060   3.672   1.191   4.711  0.0041 -0.3799 -0.0378
 2642SOL    HW1 8061   3.741   1.131   4.740 -0.1316 -0.6563 -0.2830
 2642SOL    HW2 8062   3.590   1.144   4.731 -0.0869 -0.7917 -1.3168
 2643SOL     OW 8063   2.134   2.552   4.416 -0.3561 -0.3782  0.4513
 2643SOL    HW1 8064   2.085   2.558   4.498  0.4776  1.3624  0.8570
 2643SOL    HW2 8065   2.226   2.547   4.442 -0.1917 -3.9566 -0.2906
 2644SOL     OW 8066   1.318   4.793   0.043 -0.0166 -0.3460 -0.4207
 2644SOL    HW1 8067   1.369   4.778  -0.037 -0.9760  2.0377 -1.5932
 2644SOL    HW2 8068   1.336   4.884   0.066 -0.4642 -0.7155  1.6047
 2645SOL     OW 8069   2.989   2.122   3.245 -0.0143  0.2273  0.2798
 2645SOL    HW1 8070   3.026   2.128   3.157  0.1981  0.9383  0.4166
 2645SOL    HW2 8071   3.052   2.069   3.294  1.0637  1.7867  0.6286
 2646SOL     OW 8072   2.184   2.745   2.157  0.2771  0.3998  0.1282
 2646SOL    HW1 8073   2.139   2.795   2.089 -1.3973  0.2750  1.0780
 2646SOL    HW2 8074   2.163   2.790   2.238  0.8242 -0.4253  0.7456
 2647SOL     OW 8075   4.562   4.604   0.781  0.1461 -0.0956  0.3240
 2647SOL    HW1 8076   4.593   4.641   0.698 -0.4366 -0.7458 -0.1969
 2647SOL    HW2 8077   4.472   4.635   0.789 -0.1800 -0.9693  0.1337
 2648SOL     OW 8078   4.746   4.627   4.456 -0.3011 -0.3621  0.6670
 2648SOL    HW1 8079   4.751   4.633   4.551 -1.4067  0.5979  0.6867
 2648SOL    HW2 8080   4.785   4.543   4.435  4.2394  1.2223  1.5739
 2649SOL     OW 8081   0.426   1.633   4.798 -0.8003  0.1796  0.6985
 2649SOL    HW1 8082   0.454   1.617   4.708 -2.3677 -1.3588  0.4304
 2649SOL    HW2 8083   0.346   1.685   4.789  0.1921  1.8839  1.3257
 2650SOL     OW 8084   4.355   0.710   1.874  0.5385 -0.3432  0.3750
 2650SOL    HW1 8085   4.272   0.713   1.827  1.2975 -0.0775 -1.0067
 2650SOL    HW2 8086   4.390   0.799   1.865  1.9317 -0.9688 -0.9155
 2651SOL     OW 8087   4.639   4.809   3.275 -0.7061 -0.1319 -0.0436
 2651SOL    HW1 8088   4.597   4.889   3.307 -0.4490  0.6657 -1.6348
 2651SOL    HW2 8089   4.568   4.762   3.229 -0.3498  0.2561 -1.0089
 2652SOL     OW 8090   0.429   0.948   2.798 -0.4494  0.6364 -0.6074
 2652SOL    HW1 8091   0.413   1.037   2.768 -1.4341  0.4549 -0.6492
 2652SOL    HW2 8092   0.362   0.932   2.865 -0.5333 -0.2034 -0.8752
 2653SOL     OW 8093   2.456   1.943   2.549 -0.3062  0.0307  0.5559
 2653SOL    HW1 8094   2.505   1.929   2.469  1.1160 -0.6582  1.5102
 2653SOL    HW2 8095   2.380   1.995   2.522  0.3763  0.2026 -1.1382
 2654SOL     OW 8096   1.859   0.866   1.922 -0.0475 -0.2158 -0.6337
 2654SOL    HW1 8097   1.857   0.887   2.015  1.8541 -1.4258 -0.2629
 2654SOL    HW2 8098   1.779   0.905   1.887  0.2730  2.1939  1.0745
 2655SOL     OW 8099   3.995   4.945   2.788 -0.7161  0.2170  0.6503
 2655SOL    HW1 8100   3.902   4.934   2.807 -0.3033 -0.6259  2.3761
 2655SOL    HW2 8101   4.037   4.869   2.829  0.8605  1.2529  1.0327
 2656SOL     OW 8102   4.034   1.805   1.838  0.2273  0.2765  0.0158
 2656SOL    HW1 8103   4.093   1.813   1.913 -0.8580  0.5956  0.8610
 2656SOL    HW2 8104   3.957   1.761   1.873 -1.0364  2.0151 -0.4420
 2657SOL     OW 8105   3.471   4.628   0.772 -0.4615 -0.0327 -0.0302
 2657SOL    HW1 8106   3.386   4.596   0.803 -0.7345 -1.2710 -1.8645
 2657SOL    HW2 8107   3.535   4.567   0.811 -0.5910 -0.2276 -0.1206
 2658SOL     OW 8108   3.000   3.983   2.599 -0.3551  0.3287 -0.6946
 2658SOL    HW1 8109   3.039   3.982   2.686 -0.8404  0.1285 -0.4773
 2658SOL    HW2 8110   3.066   3.942   2.542 -0.1019  0.3205 -0.3946
 2659SOL     OW 8111   0.563   4.024   0.371  0.0411  0.2721 -0.4718
 2659SOL    HW1 8112   0.627   4.068   0.316 -1.6534  0.4334 -2.4122
 2659SOL    HW2 8113   0.574   3.931   0.350 -0.5534  0.3266 -1.0380
 2660SOL     OW 8114   1.355   1.099   2.520  0.2497  0.1327 -0.2183
 2660SOL    HW1 8115   1.348   1.079   2.613  0.3471  2.3398  0.3222
 2660SOL    HW2 8116   1.296   1.037   2.478  0.1526 -0.8748  1.3110
 2661SOL     OW 8117   3.818   3.905   0.560  0.0376 -0.0753 -0.5837
 2661SOL    HW1 8118   3.768   3.911   0.641  2.5245 -0.4171  1.0843
 2661SOL    HW2 8119   3.777   3.968   0.501  0.1811  2.7639  2.1158
 2662SOL     OW 8120   1.493   2.792   0.344  0.2358 -0.2071  0.0083
 2662SOL    HW1 8121   1.402   2.788   0.312 -0.2645  1.2241  1.1475
 2662SOL    HW2 8122   1.536   2.717   0.303 -1.3627 -0.6972 -0.8603
 2663SOL     OW 8123   3.295   0.447   1.154  0.1482 -0.2372 -0.3366
 2663SOL    HW1 8124   3.299   0.541   1.136  2.1567  0.5051  3.0498
 2663SOL    HW2 8125   3.205   0.432   1.182 -0.5219  0.3660 -2.0405
 2664SOL     OW 8126   0.654   4.016   2.401 -0.0267  0.3860  0.2886
 2664SOL    HW1 8127   0.647   4.035   2.494  0.9543  1.8933  0.0937
 2664SOL    HW2 8128   0.735   3.967   2.392 -0.4115 -0.2666  0.2737
 2665SOL     OW 8129   1.997   3.264   4.919  0.3709  0.0183 -0.5918
 2665SOL    HW1 8130   1.994   3.231   5.009 -1.8605  1.4240 -0.0615
 2665SOL    HW2 8131   1.973   3.189   4.865 -0.6700 -0.2391  0.2066
 2666SOL     OW 8132   0.199   3.716   2.307 -0.2135  0.2172  0.2269
 2666SOL    HW1 8133   0.150   3.636   2.287  0.9249 -0.1327 -1.4171
 2666SOL    HW2 8134   0.238   3.700   2.393 -1.9571  0.0200  1.0034
 2667SOL     OW 8135   3.729   0.250   4.404 -0.0466 -0.3888  0.3358
 2667SOL    HW1 8136   3.700   0.166   4.369  1.3307 -0.1979 -1.4164
 2667SOL    HW2 8137   3.664   0.313   4.373 -0.0256 -0.5375 -0.0099
 2668SOL     OW 8138   3.972   2.734   1.774 -0.4456 -0.0691 -0.1006
 2668SOL    HW1 8139   4.057   2.690   1.765 -0.1416  0.5040 -0.1145
 2668SOL    HW2 8140   3.978   2.781   1.857 -1.1498 -0.8612  0.4118
 2669SOL     OW 8141   3.307   1.270   1.859  0.3514  0.2846  0.0073
 2669SOL    HW1 8142   3.290   1.206   1.928 -1.9113  0.8588  0.0590
 2669SOL    HW2 8143   3.221   1.286   1.819  0.2296  5.0599  1.5895
 2670SOL     OW 8144   4.014   3.464   4.905  0.5262 -0.1551  0.0243
 2670SOL    HW1 8145   3.958   3.397   4.943  1.7656 -0.8468  0.6999
 2670SOL    HW2 8146   4.044   3.516   4.979  1.5623 -0.4283 -0.1777
 2671SOL     OW 8147   0.820   2.156   4.271  0.0458  0.3485 -0.4088
 2671SOL    HW1 8148   0.881   2.211   4.222 -0.6181 -0.2957 -2.0233
 2671SOL    HW2 8149   0.742   2.152   4.216 -0.6657 -0.5609  0.6305
 2672SOL     OW 8150   1.862   4.069   2.251 -0.3973 -0.6891  0.0509
 2672SOL    HW1 8151   1.947   4.113   2.246  0.2824 -1.6490  2.0489
 2672SOL    HW2 8152   1.807   4.130   2.300 -0.8979 -0.0793 -1.2197
 2673SOL     OW 8153   4.096   0.098   0.230  0.3072 -0.1916  0.0590
 2673SOL    HW1 8154   4.098   0.073   0.322 -0.9096 -0.5811 -0.0023
 2673SOL    HW2 8155   4.100   0.194   0.231  4.2643 -0.2166  0.3216
 2674SOL     OW 8156   0.709   0.453   4.094  0.0413 -0.1979 -0.9951
 2674SOL    HW1 8157   0.713   0.533   4.042 -1.5637 -0.2464 -1.2410
 2674SOL    HW2 8158   0.775   0.396   4.055  0.5838  0.6802 -1.3773
 2675SOL     OW 8159   2.659   3.102   3.380  0.1398  0.0407  0.1183
 2675SOL    HW1 8160   2.725   3.068   3.441 -0.0289  0.7902  0.7408
 2675SOL    HW2 8161   2.709   3.127   3.302  0.4386 -0.3918  0.1703
 2676SOL     OW 8162   1.592   1.575   2.923 -0.4417 -0.5142 -0.1265
 2676SOL    HW1 8163   1.637   1.543   2.845 -1.1396  0.2450 -0.8598
 2676SOL    HW2 8164   1.607   1.669   2.923  1.1648 -0.6985  1.7354
 2677SOL     OW 8165   2.831   2.864   0.107  0.1077  0.0407  0.5873
 2677SOL    HW1 8166   2.796   2.786   0.065 -1.2853  0.4868  0.8877
 2677SOL    HW2 8167   2.880   2.908   0.038 -0.6460 -0.1533 -0.0836
 2678SOL     OW 8168   3.437   1.132   3.983 -0.4493 -0.3472  0.4281
 2678SOL    HW1 8169   3.351   1.112   4.020 -0.3899 -1.1053  0.1599
 2678SOL    HW2 8170   3.497   1.128   4.057 -0.6577  0.3073  0.6401
 2679SOL     OW 8171   2.905   3.497   2.410 -0.1214  0.3107  0.0552
 2679SOL    HW1 8172   2.940   3.434   2.347  0.0531  0.5141 -0.0487
 2679SOL    HW2 8173   2.869   3.567   2.357  0.5937  0.7923  0.1931
 2680SOL     OW 8174   1.433   0.421   0.625 -0.0095 -0.3162  0.3466
 2680SOL    HW1 8175   1.349   0.466   0.621 -0.5026 -1.2369 -0.0124
 2680SOL    HW2 8176   1.426   0.364   0.702 -0.6034 -2.0322 -0.9008
 2681SOL     OW 8177   2.946   4.669   3.701  0.4900 -0.1842  0.0140
 2681SOL    HW1 8178   2.912   4.598   3.645  0.5044 -0.5321  0.4405
 2681SOL    HW2 8179   3.019   4.629   3.748  2.4027  0.9058 -1.8654
 2682SOL     OW 8180   0.688   4.769   1.824 -0.0984  1.0029 -0.4607
 2682SOL    HW1 8181   0.707   4.678   1.849 -1.4182  1.3798  2.3043
 2682SOL    HW2 8182   0.599   4.766   1.788 -0.0295  1.1786 -0.6482
 2683SOL     OW 8183   3.966   3.225   1.238 -0.4125 -0.3916  0.2806
 2683SOL    HW1 8184   4.003   3.170   1.307  3.4155  2.3679  0.7520
 2683SOL    HW2 8185   3.880   3.249   1.271 -0.2251 -2.1462  2.2791
 2684SOL     OW 8186   4.342   2.840   2.084  0.0557 -0.7497  0.1755
 2684SOL    HW1 8187   4.357   2.747   2.066 -1.1089 -0.9716  0.2638
 2684SOL    HW2 8188   4.410   2.885   2.035  2.0628 -1.7267  1.8702
 2685SOL     OW 8189   4.925   3.683   4.615  0.0206 -0.1988  0.1170
 2685SOL    HW1 8190   4.908   3.668   4.522 -0.8812 -1.1219  0.4122
 2685SOL    HW2 8191   5.020   3.685   4.622  0.1010 -0.5028 -0.7783
 2686SOL     OW 8192   0.118   4.357  -0.020  0.6842 -0.2863 -0.0819
 2686SOL    HW1 8193   0.108   4.365   0.074  1.7249  1.4692 -0.0796
 2686SOL    HW2 8194   0.198   4.306  -0.031 -0.6181 -2.4377 -0.0676
 2687SOL     OW 8195   2.969   1.967   0.180  0.3988  0.0128 -0.1555
 2687SOL    HW1 8196   2.894   1.943   0.233  0.4541  0.3146  0.0549
 2687SOL    HW2 8197   2.950   1.929   0.094 -0.7692  1.4768 -0.5816
 2688SOL     OW 8198   3.813   1.266   0.808  0.9011  0.2494  0.3851
 2688SOL    HW1 8199   3.886   1.291   0.752  1.2998  1.4560  1.4068
 2688SOL    HW2 8200   3.853   1.241   0.891  0.2508 -0.4882  0.4854
 2689SOL     OW 8201   2.675   1.409   0.581 -0.4432  0.0013 -0.4703
 2689SOL    HW1 8202   2.656   1.368   0.496 -1.5394  2.1914 -1.3562
 2689SOL    HW2 8203   2.634   1.350   0.645 -0.1669 -1.3471 -1.4784
 2690SOL     OW 8204   1.292   1.276   0.895  0.3410  0.8132  0.7438
 2690SOL    HW1 8205   1.232   1.202   0.887  0.1097  0.8773  1.7092
 2690SOL    HW2 8206   1.235   1.351   0.912  0.6272  1.0684  0.5831
 2691SOL     OW 8207   1.142   4.564   3.679 -0.5085 -0.2273 -0.0617
 2691SOL    HW1 8208   1.233   4.542   3.698 -0.8120 -0.7594  0.8288
 2691SOL    HW2 8209   1.144   4.657   3.655  0.5449 -0.7059 -2.0750
 2692SOL     OW 8210   1.017   1.635   3.836  0.0405 -1.0718  0.0561
 2692SOL    HW1 8211   0.928   1.655   3.809  0.2661  0.7067  0.5007
 2692SOL    HW2 8212   1.070   1.651   3.758  0.2173  0.0973  0.4011
 2693SOL     OW 8213   1.664   4.230   4.326 -0.4809 -0.5350  0.0261
 2693SOL    HW1 8214   1.584   4.262   4.366  0.3208  0.5306  0.8247
 2693SOL    HW2 8215   1.669   4.138   4.352 -1.1809 -0.4767  0.3821
 2694SOL     OW 8216   4.650   1.076   2.433  0.0103 -0.2195  0.1284
 2694SOL    HW1 8217   4.643   1.150   2.373  1.6748 -0.3997 -0.3404
 2694SOL    HW2 8218   4.578   1.089   2.495 -0.9157  0.7171 -1.0775
 2695SOL     OW 8219   1.220   1.753   4.300 -0.8446  0.0481 -0.0999
 2695SOL    HW1 8220   1.231   1.671   4.348 -1.5581 -0.4135 -0.7231
 2695SOL    HW2 8221   1.134   1.785   4.327 -1.1072 -0.0475 -0.8245
 2696SOL     OW 8222   0.129   3.344   0.496  0.6160 -0.4325  0.3128
 2696SOL    HW1 8223   0.065   3.303   0.555  0.0547  0.2173  0.1789
 2696SOL    HW2 8224   0.192   3.386   0.555 -0.2232  0.6432  0.4859
 2697SOL     OW 8225   4.536   2.048   0.901 -0.5323  0.1272 -0.1377
 2697SOL    HW1 8226   4.600   1.976   0.898  0.9205  1.2982  1.3036
 2697SOL    HW2 8227   4.451   2.005   0.889  0.3826 -1.6764 -0.4661
 2698SOL     OW 8228   0.159   3.682   4.184 -0.3963  0.0359 -0.2717
 2698SOL    HW1 8229   0.198   3.594   4.182  0.5316  0.4213  0.2832
 2698SOL    HW2 8230   0.196   3.726   4.107 -1.2273 -0.2000 -0.8164
 2699SOL     OW 8231   3.477   3.029   2.319 -0.6995 -0.4752 -0.1128
 2699SOL    HW1 8232   3.468   3.118   2.353  1.1783  0.1981 -1.2465
 2699SOL    HW2 8233   3.543   2.987   2.375 -1.0037 -0.9076 -0.0681
 2700SOL     OW 8234   4.986   2.345   0.080 -0.2594 -0.5743  0.7154
 2700SOL    HW1 8235   5.010   2.432   0.048 -1.7701 -0.6970 -0.9275
 2700SOL    HW2 8236   5.002   2.349   0.174 -0.1954  1.4467  0.6736
 2701SOL     OW 8237   1.000   1.000   1.523  0.3334  0.6217  0.1792
 2701SOL    HW1 8238   0.974   1.092   1.528 -1.9176  0.0525  0.2931
 2701SOL    HW2 8239   0.917   0.952   1.521  1.3366 -1.3070 -2.7072
 2702SOL     OW 8240   3.495   4.059   0.437  0.0361 -0.1123 -0.6400
 2702SOL    HW1 8241   3.432   4.127   0.459  0.3710 -0.2944  1.0337
 2702SOL    HW2 8242   3.464   4.023   0.354 -0.4530  1.6870 -1.2848
 2703SOL     OW 8243   2.970   0.900   2.603 -0.0353 -0.5639  1.0932
 2703SOL    HW1 8244   3.065   0.911   2.602 -0.2266  1.6874 -0.1693
 2703SOL    HW2 8245   2.956   0.816   2.645  2.4635 -0.5202  2.2044
 2704SOL     OW 8246   1.052   0.374   3.167 -0.0189  0.4779  0.1594
 2704SOL    HW1 8247   1.113   0.328   3.110 -0.3931 -0.6408  0.6136
 2704SOL    HW2 8248   1.087   0.360   3.255  0.3350  1.8376  0.2583
 2705SOL     OW 8249   3.578   1.403   0.412 -0.1307  0.0004  0.1363
 2705SOL    HW1 8250   3.594   1.450   0.493 -1.3160 -0.1339  0.4635
 2705SOL    HW2 8251   3.655   1.347   0.401 -0.6308 -1.1271  1.9921
 2706SOL     OW 8252   0.034   0.152   4.705  0.3707 -0.1013 -0.3693
 2706SOL    HW1 8253   0.028   0.180   4.797 -0.0213 -1.0128 -0.1045
 2706SOL    HW2 8254  -0.055   0.157   4.672  0.6073  0.8154 -0.8940
 2707SOL     OW 8255   2.736   3.883   0.508 -0.0683 -1.0581 -0.2936
 2707SOL    HW1 8256   2.658   3.837   0.479 -0.1041 -1.0371 -0.2303
 2707SOL    HW2 8257   2.808   3.840   0.462 -0.3492  0.6488 -2.4644
 2708SOL     OW 8258   3.336   4.091   1.870  0.5992 -0.4200 -0.1930
 2708SOL    HW1 8259   3.243   4.111   1.861  0.5402 -1.1343 -1.3416
 2708SOL    HW2 8260   3.379   4.177   1.878  0.0001 -0.0051 -1.2753
 2709SOL     OW 8261   3.481   0.652   2.885 -0.0745  0.1074 -0.1343
 2709SOL    HW1 8262   3.411   0.591   2.862 -0.5550  0.0189  1.4851
 2709SOL    HW2 8263   3.514   0.683   2.800 -0.5359 -1.5648 -0.9768
 2710SOL     OW 8264   4.218   2.210   1.047  0.2797 -0.0458 -0.1150
 2710SOL    HW1 8265   4.279   2.137   1.063 -1.6191 -1.4410  1.2492
 2710SOL    HW2 8266   4.176   2.188   0.964 -0.9697 -1.0736  0.7514
 2711SOL     OW 8267   2.273   1.460   1.140 -0.0744 -0.3265 -0.4199
 2711SOL    HW1 8268   2.353   1.409   1.126 -1.0573 -1.7329 -1.1909
 2711SOL    HW2 8269   2.276   1.484   1.232  0.0016 -2.6197  0.2523
 2712SOL     OW 8270   4.611   4.909   4.483  0.4059 -0.7294 -0.3118
 2712SOL    HW1 8271   4.592   4.910   4.576 -0.1380 -0.4111 -0.4219
 2712SOL    HW2 8272   4.612   4.816   4.460 -1.0214 -0.7737 -0.2870
 2713SOL     OW 8273   4.777   1.794   3.940  0.5058 -0.0106 -0.7120
 2713SOL    HW1 8274   4.703   1.734   3.929 -1.1743  1.1574  2.7732
 2713SOL    HW2 8275   4.838   1.747   3.995 -0.4100  1.0057  1.2806
 2714SOL     OW 8276   4.002   0.982   0.101  0.6215  0.2478 -0.0281
 2714SOL    HW1 8277   4.018   0.979   0.196  0.8389  1.6598  0.0021
 2714SOL    HW2 8278   4.078   0.940   0.063  0.2579 -0.8648  0.4357
 2715SOL     OW 8279   0.884   4.011   3.314  0.3270  0.1222  0.6875
 2715SOL    HW1 8280   0.895   3.928   3.267 -3.0614 -0.8740  1.3531
 2715SOL    HW2 8281   0.874   4.076   3.244 -0.1719 -0.6015  0.0582
 2716SOL     OW 8282   1.234   2.068   1.879 -0.7422 -0.0212 -0.1063
 2716SOL    HW1 8283   1.236   2.154   1.837  0.5891 -1.7591 -4.0928
 2716SOL    HW2 8284   1.155   2.026   1.844  0.8381 -1.8423 -1.6440
 2717SOL     OW 8285   0.709   4.679   3.128 -0.2437 -0.0720  0.6274
 2717SOL    HW1 8286   0.614   4.695   3.121 -0.0120  1.3370  0.3971
 2717SOL    HW2 8287   0.744   4.706   3.043  0.4602  0.2088  1.0049
 2718SOL     OW 8288   0.172   1.762   1.491 -0.3173 -0.0329 -0.9729
 2718SOL    HW1 8289   0.248   1.704   1.497 -0.4976 -0.3045 -1.2872
 2718SOL    HW2 8290   0.209   1.850   1.492 -0.1091 -0.1033  0.6741
 2719SOL     OW 8291   4.240   4.030   1.037 -0.4241 -0.5513 -0.3747
 2719SOL    HW1 8292   4.200   4.037   0.950 -0.4377 -0.5867 -0.3714
 2719SOL    HW2 8293   4.214   4.110   1.082 -0.0130 -0.3054 -0.5710
 2720SOL     OW 8294   3.952   4.335   1.935  0.0396  0.0548  0.0387
 2720SOL    HW1 8295   3.887   4.266   1.948 -0.6741  0.6353 -0.3843
 2720SOL    HW2 8296   4.032   4.288   1.910 -0.4625 -0.6194 -0.3499
 2721SOL     OW 8297   1.829   0.569   1.049  0.0967 -0.3631 -0.4857
 2721SOL    HW1 8298   1.803   0.623   0.975  2.5756  0.9705 -0.4937
 2721SOL    HW2 8299   1.779   0.604   1.123 -0.6244 -0.1318 -1.0665
 2722SOL     OW 8300   0.709   3.520   2.759  0.6101  0.2144 -0.2207
 2722SOL    HW1 8301   0.683   3.439   2.715  0.6055  0.9274 -1.6179
 2722SOL    HW2 8302   0.626   3.560   2.785  0.5224  0.4194 -0.7864
 2723SOL     OW 8303   2.013   3.755   1.262 -0.0721  0.3071  0.4474
 2723SOL    HW1 8304   1.924   3.791   1.262 -0.6109 -0.9355 -0.2712
 2723SOL    HW2 8305   2.001   3.662   1.282  1.3611  0.6233  3.2032
 2724SOL     OW 8306   0.580   3.997   3.136 -0.0979  0.2102  0.1739
 2724SOL    HW1 8307   0.604   4.078   3.180 -0.9282 -0.0198  1.0760
 2724SOL    HW2 8308   0.620   4.004   3.049 -0.7870  1.9098 -0.0325
 2725SOL     OW 8309   1.318   3.882   0.023 -0.2374 -0.7748 -1.5253
 2725SOL    HW1 8310   1.242   3.855  -0.028 -2.3459 -2.1133  1.9045
 2725SOL    HW2 8311   1.294   3.968   0.059 -0.0063 -1.0396 -0.7105
 2726SOL     OW 8312   1.002   3.625   0.399  0.0976 -0.0466 -0.4346
 2726SOL    HW1 8313   0.994   3.669   0.314  1.1534 -0.6631 -0.8734
 2726SOL    HW2 8314   0.926   3.655   0.449  0.3300  1.6036 -1.0097
 2727SOL     OW 8315   2.780   4.690   0.784 -0.5325 -0.5076  0.2833
 2727SOL    HW1 8316   2.755   4.643   0.705  0.7794  0.8106 -0.9843
 2727SOL    HW2 8317   2.734   4.644   0.855  0.3684 -3.4508 -0.8756
 2728SOL     OW 8318   1.750   0.600   4.234 -0.4017 -0.6700  0.6925
 2728SOL    HW1 8319   1.812   0.620   4.164  0.6629  1.1561  2.0612
 2728SOL    HW2 8320   1.732   0.507   4.225 -0.3151 -0.5067 -1.9691
 2729SOL     OW 8321   3.307   0.992   3.067  0.4484  0.1931  0.5722
 2729SOL    HW1 8322   3.268   1.011   2.982  2.0080 -0.7744 -0.4063
 2729SOL    HW2 8323   3.352   1.073   3.091 -0.0985  0.5115  0.5581
 2730SOL     OW 8324   3.940   3.559   1.445  0.2408 -0.6002 -0.2471
 2730SOL    HW1 8325   3.897   3.585   1.364 -1.3971  1.2876  1.1238
 2730SOL    HW2 8326   3.868   3.541   1.506  1.4059 -1.0242  1.0568
 2731SOL     OW 8327   1.116   2.780   1.247 -0.2213 -0.3455  0.0100
 2731SOL    HW1 8328   1.106   2.867   1.208 -0.7623 -1.5362 -2.7706
 2731SOL    HW2 8329   1.142   2.724   1.174  0.7371 -2.4331  1.8384
 2732SOL     OW 8330   3.841   3.625   4.718 -0.1231  0.5574  0.9181
 2732SOL    HW1 8331   3.926   3.651   4.682  0.2386  2.1429  2.7327
 2732SOL    HW2 8332   3.859   3.545   4.767 -0.1380 -0.2929 -0.4376
 2733SOL     OW 8333   4.161   3.171   0.998  1.1078 -0.1705  0.1135
 2733SOL    HW1 8334   4.110   3.228   1.056 -0.6731 -1.0820 -0.4647
 2733SOL    HW2 8335   4.197   3.104   1.055  0.5521 -0.2516  0.3783
 2734SOL     OW 8336   2.386   4.702   0.542  0.2875  0.3379 -0.0406
 2734SOL    HW1 8337   2.410   4.635   0.478 -1.3383  0.3673 -0.7384
 2734SOL    HW2 8338   2.389   4.657   0.626 -0.2502 -0.4756 -0.4441
 2735SOL     OW 8339   3.449   3.676   1.145 -0.5009  0.5307 -0.5110
 2735SOL    HW1 8340   3.470   3.647   1.234  1.2679  2.8942 -0.0514
 2735SOL    HW2 8341   3.379   3.618   1.117  2.7040 -4.1861  0.1572
 2736SOL     OW 8342   0.477   2.852   0.185 -0.1130  1.0587  0.3231
 2736SOL    HW1 8343   0.489   2.783   0.121  2.0125  3.2491 -1.8750
 2736SOL    HW2 8344   0.515   2.817   0.266  1.4571 -0.1785 -0.8710
 2737SOL     OW 8345   2.742   1.421   2.000 -1.0215  0.5085  0.2486
 2737SOL    HW1 8346   2.835   1.438   2.016 -1.3548  0.8467  1.9845
 2737SOL    HW2 8347   2.719   1.481   1.929  0.0386  0.5340 -0.0915
 2738SOL     OW 8348   0.387   0.797   1.880 -0.3443  0.2457  0.2055
 2738SOL    HW1 8349   0.333   0.719   1.868  0.9232 -0.3088 -2.8802
 2738SOL    HW2 8350   0.468   0.764   1.919 -0.9955  0.6280  2.0154
 2739SOL     OW 8351   3.348   3.110   3.982  0.0846 -0.0512  0.5951
 2739SOL    HW1 8352   3.307   3.110   4.069  1.0417  0.9975  1.0777
 2739SOL    HW2 8353   3.378   3.200   3.970 -1.3810  0.2285 -1.4991
 2740SOL     OW 8354   0.155   1.934   3.057  0.0929  0.1077  0.3240
 2740SOL    HW1 8355   0.132   1.952   2.965 -0.6430  0.1112  0.4994
 2740SOL    HW2 8356   0.079   1.886   3.091  1.6081 -2.5809  0.1315
 2741SOL     OW 8357   0.148   0.812   0.063  0.4999 -0.1177 -0.9085
 2741SOL    HW1 8358   0.062   0.842   0.036  0.4374 -0.2212 -0.8288
 2741SOL    HW2 8359   0.178   0.756  -0.009  0.1784 -0.6874 -0.6109
 2742SOL     OW 8360   3.925   2.114   4.119  0.3967 -0.0094 -0.1138
 2742SOL    HW1 8361   3.855   2.155   4.169  1.7112 -0.5426  2.3612
 2742SOL    HW2 8362   3.994   2.097   4.184  2.0512 -1.2195 -2.0507
 2743SOL     OW 8363   3.682   2.168   3.153 -0.6452  0.3487  0.3789
 2743SOL    HW1 8364   3.730   2.231   3.099  2.5813 -1.3354  1.0508
 2743SOL    HW2 8365   3.616   2.221   3.197 -0.1092  2.6769 -1.3618
 2744SOL     OW 8366   1.047   5.002   3.520 -0.1381 -0.3445 -0.2999
 2744SOL    HW1 8367   1.027   5.033   3.432 -1.2816  0.0981  0.1060
 2744SOL    HW2 8368   1.060   4.907   3.509 -0.7510 -0.3685 -0.8643
 2745SOL     OW 8369   1.801   2.155   3.892  0.1567 -0.6084 -0.0477
 2745SOL    HW1 8370   1.841   2.234   3.930  1.1804 -1.3166  0.3974
 2745SOL    HW2 8371   1.748   2.120   3.963  0.4541 -0.8251  0.0707
 2746SOL     OW 8372   1.050   3.439   1.322  0.3611 -0.3073 -0.1299
 2746SOL    HW1 8373   1.038   3.533   1.310  1.3734  0.1549  1.9216
 2746SOL    HW2 8374   0.962   3.403   1.324 -0.0255  0.5298 -1.3275
 2747SOL     OW 8375   2.769   2.616   0.036 -0.0432 -0.3058  0.3048
 2747SOL    HW1 8376   2.778   2.628  -0.059  2.6241  1.3563  0.6449
 2747SOL    HW2 8377   2.851   2.576   0.063  0.2232  1.3342  2.1522
 2748SOL     OW 8378   3.746   4.131   1.136 -0.0272  0.8170 -0.5244
 2748SOL    HW1 8379   3.788   4.091   1.212 -0.0909  1.4913 -0.1306
 2748SOL    HW2 8380   3.816   4.180   1.093  0.8192 -2.0659 -2.7127
 2749SOL     OW 8381   3.921   1.129   4.072  0.3076 -0.3308  0.6539
 2749SOL    HW1 8382   3.910   1.160   3.983 -0.4719  1.5323  1.3475
 2749SOL    HW2 8383   3.922   1.034   4.065  0.0632 -0.2161 -1.2985
 2750SOL     OW 8384   2.669   3.465   4.108 -0.3061  0.7339  0.0261
 2750SOL    HW1 8385   2.633   3.527   4.045  0.3361 -0.9616 -2.1351
 2750SOL    HW2 8386   2.755   3.500   4.130 -0.3794  1.1573 -0.3439
 2751SOL     OW 8387   2.906   2.381   1.793 -0.2795  0.4544  0.0265
 2751SOL    HW1 8388   2.928   2.349   1.705  1.6537 -0.3101  0.7247
 2751SOL    HW2 8389   2.980   2.437   1.817 -1.0823  1.1604  0.9481
 2752SOL     OW 8390   0.898   2.387   1.042 -0.6101 -0.6658  0.0013
 2752SOL    HW1 8391   0.855   2.319   0.990  0.4736 -0.4962 -1.1625
 2752SOL    HW2 8392   0.931   2.449   0.977  1.6878 -0.9698  0.8074
 2753SOL     OW 8393   3.402   1.136   0.273 -0.1187  0.8135  0.6228
 2753SOL    HW1 8394   3.369   1.163   0.359  0.7569 -0.5948  1.4548
 2753SOL    HW2 8395   3.374   1.205   0.213 -1.3988  1.4612  1.9070
 2754SOL     OW 8396   0.511   1.477   2.130  0.2888 -0.2696 -0.0656
 2754SOL    HW1 8397   0.592   1.460   2.176  0.5305  0.6577 -0.1286
 2754SOL    HW2 8398   0.490   1.568   2.150 -1.6156 -0.9366  1.2969
 2755SOL     OW 8399   4.630   4.404   4.946 -0.4716 -0.9691  0.4295
 2755SOL    HW1 8400   4.681   4.467   4.998 -2.8224  0.6384  0.9404
 2755SOL    HW2 8401   4.656   4.318   4.981  1.4825 -0.2178  0.9838
 2756SOL     OW 8402   3.307   1.922   2.602  0.4237 -0.3121  0.1862
 2756SOL    HW1 8403   3.224   1.905   2.646  0.2959  0.7108  0.3673
 2756SOL    HW2 8404   3.298   1.879   2.517 -0.5231  0.2786 -0.0243
 2757SOL     OW 8405   4.456   4.944   2.325 -0.0117  0.6680  1.1977
 2757SOL    HW1 8406   4.451   5.040   2.324  1.8629  0.8206 -0.7747
 2757SOL    HW2 8407   4.447   4.921   2.418 -4.3706  2.3793  1.4386
 2758SOL     OW 8408   3.592   2.767   2.344  0.5842 -0.3172  0.1496
 2758SOL    HW1 8409   3.572   2.679   2.377  1.7286 -1.6584 -2.4347
 2758SOL    HW2 8410   3.677   2.757   2.300 -0.6972  1.2586 -2.9603
 2759SOL     OW 8411   4.784   4.279   4.275  0.2372 -0.0253  0.2638
 2759SOL    HW1 8412   4.760   4.372   4.272 -1.0858 -0.3684 -0.4165
 2759SOL    HW2 8413   4.880   4.280   4.281  0.2229  1.3812  0.7113
 2760SOL     OW 8414   3.027   2.356   1.525  0.0970 -0.2048  0.2094
 2760SOL    HW1 8415   3.045   2.447   1.503 -1.5979  0.0148 -0.4310
 2760SOL    HW2 8416   3.022   2.311   1.441 -3.4179  0.0421  0.1128
 2761SOL     OW 8417   0.000   3.907   4.149  0.1155  0.2085  0.2529
 2761SOL    HW1 8418   0.044   3.825   4.173  1.1682  1.0982  1.4696
 2761SOL    HW2 8419   0.017   3.966   4.222 -2.6336  0.8053  0.5047
 2762SOL     OW 8420   0.167   0.563   4.264 -1.0445  0.6153  0.0138
 2762SOL    HW1 8421   0.181   0.571   4.169  0.4234  0.6810  0.2110
 2762SOL    HW2 8422   0.107   0.489   4.273  1.5649 -1.8081 -0.8592
 2763SOL     OW 8423   4.383   1.968   0.356  0.1651 -0.7822  0.2808
 2763SOL    HW1 8424   4.309   1.976   0.295 -0.4615 -0.0061  1.1209
 2763SOL    HW2 8425   4.448   2.030   0.324  0.3970 -1.3292 -0.3493
 2764SOL     OW 8426   2.055   1.918   2.649 -0.2631  0.2623 -0.5232
 2764SOL    HW1 8427   2.060   1.977   2.574  0.5290  0.5639 -0.2475
 2764SOL    HW2 8428   2.092   1.969   2.722 -2.1512  0.4288  0.3749
 2765SOL     OW 8429   2.856   4.021   1.343  0.2798 -0.8965  0.3041
 2765SOL    HW1 8430   2.942   4.055   1.367  0.2619 -1.0457  0.5832
 2765SOL    HW2 8431   2.831   4.072   1.266  0.0491  0.0693  1.0007
 2766SOL     OW 8432   1.920   2.755   4.354 -0.0708 -0.5526 -0.2679
 2766SOL    HW1 8433   1.906   2.759   4.260  1.4445  0.1510 -0.5038
 2766SOL    HW2 8434   1.968   2.674   4.368  0.8119 -0.0518 -0.2936
 2767SOL     OW 8435   2.888   4.746   1.189 -0.1339 -0.3095 -0.4384
 2767SOL    HW1 8436   2.918   4.680   1.126  3.5419  1.3037 -0.6590
 2767SOL    HW2 8437   2.868   4.823   1.135 -0.5841 -0.0681  0.0701
 2768SOL     OW 8438   1.369   0.013   1.113  0.1301 -0.1055  1.1476
 2768SOL    HW1 8439   1.459   0.045   1.111  0.1062  0.2107  3.0839
 2768SOL    HW2 8440   1.349   0.003   1.206 -1.9658  0.2103  0.7863
 2769SOL     OW 8441   1.459   3.485   3.282 -0.6708  0.4028  0.5499
 2769SOL    HW1 8442   1.547   3.464   3.250 -1.1718  2.0515 -2.2870
 2769SOL    HW2 8443   1.452   3.579   3.272 -2.3993  0.4476  1.8430
 2770SOL     OW 8444   1.713   0.167   0.602 -0.2535  0.3614 -0.3032
 2770SOL    HW1 8445   1.692   0.252   0.562  0.6004  0.7309  0.0193
 2770SOL    HW2 8446   1.804   0.176   0.631  0.1918 -1.0089 -1.1714
 2771SOL     OW 8447   1.765   2.114   2.430 -0.3864 -0.5287  0.2981
 2771SOL    HW1 8448   1.705   2.051   2.471  0.2964 -1.3504  0.0638
 2771SOL    HW2 8449   1.852   2.078   2.446  0.1183  1.0204  1.2818
 2772SOL     OW 8450   0.760   3.858   3.495  0.1711  0.2159 -0.1817
 2772SOL    HW1 8451   0.733   3.787   3.437 -0.4318 -0.4667  0.8958
 2772SOL    HW2 8452   0.813   3.916   3.440 -1.2327  0.1590 -1.6782
 2773SOL     OW 8453   0.309   2.713   2.838  0.2474  0.0685 -0.2176
 2773SOL    HW1 8454   0.227   2.681   2.800 -0.5736  0.5948  1.0235
 2773SOL    HW2 8455   0.283   2.789   2.890  1.4550 -0.0384  0.5770
 2774SOL     OW 8456   2.153   3.168   4.279  0.3617 -0.5023  0.5294
 2774SOL    HW1 8457   2.158   3.126   4.193  1.9296  1.4437 -0.4116
 2774SOL    HW2 8458   2.128   3.259   4.260  1.1567  0.0855  2.0929
 2775SOL     OW 8459   4.439   2.467   4.433 -0.2270  0.6841 -0.4580
 2775SOL    HW1 8460   4.503   2.475   4.363 -0.6186  0.4007 -0.8526
 2775SOL    HW2 8461   4.456   2.541   4.491  1.0655  0.1005 -0.0552
 2776SOL     OW 8462   3.843   4.168   0.037  0.3625  0.5334  0.3037
 2776SOL    HW1 8463   3.819   4.075   0.040 -1.2274  0.8651 -0.5707
 2776SOL    HW2 8464   3.883   4.185   0.122  0.7085 -0.9559  0.4678
 2777SOL     OW 8465   3.027   2.296   4.103  0.6557  0.0063 -0.9414
 2777SOL    HW1 8466   3.027   2.234   4.175  0.1623 -1.6199 -2.2721
 2777SOL    HW2 8467   3.025   2.382   4.145 -1.0777 -0.8826  0.9767
 2778SOL     OW 8468   1.544   4.708   0.701  0.4947  0.3266 -0.5154
 2778SOL    HW1 8469   1.621   4.759   0.676  0.6379 -0.8889 -2.7865
 2778SOL    HW2 8470   1.510   4.753   0.778  3.3662  0.9949  0.4928
 2779SOL     OW 8471   3.313   4.395   4.807 -0.7424 -0.2891  0.3298
 2779SOL    HW1 8472   3.373   4.321   4.804 -1.0345 -0.5159  0.0306
 2779SOL    HW2 8473   3.256   4.383   4.731 -1.1193 -0.0393  0.5708
 2780SOL     OW 8474   4.698   0.069   0.503 -0.2421 -0.0056 -0.5446
 2780SOL    HW1 8475   4.735   0.151   0.471  0.0632 -0.5571 -1.6610
 2780SOL    HW2 8476   4.673   0.021   0.424 -0.1276 -1.1144  0.0653
 2781SOL     OW 8477   1.988   0.636   1.774 -0.0206  0.1807  1.0763
 2781SOL    HW1 8478   1.911   0.642   1.831 -0.8156  0.7563 -0.0388
 2781SOL    HW2 8479   2.004   0.726   1.746 -0.6745 -0.2868 -0.9539
 2782SOL     OW 8480   4.335   1.298   3.040 -1.5490  0.1597 -0.4662
 2782SOL    HW1 8481   4.355   1.208   3.065 -0.1088  0.3500 -0.8537
 2782SOL    HW2 8482   4.248   1.293   3.000 -1.9705 -0.8631  0.5147
 2783SOL     OW 8483   4.563   3.212   2.864  0.3197 -0.4544  0.2110
 2783SOL    HW1 8484   4.621   3.148   2.823  1.9780  1.5637 -0.8144
 2783SOL    HW2 8485   4.530   3.264   2.790 -1.1373 -0.2424  0.9862
 2784SOL     OW 8486   2.417   0.419   4.284 -0.6059 -0.4285  0.3114
 2784SOL    HW1 8487   2.491   0.448   4.230 -1.3564  2.7846  0.7866
 2784SOL    HW2 8488   2.456   0.361   4.350  0.8397 -1.7304 -1.5664
 2785SOL     OW 8489   2.397   2.749   3.100  0.0927  0.0835 -0.3687
 2785SOL    HW1 8490   2.310   2.740   3.140  1.1073 -2.3826  1.5075
 2785SOL    HW2 8491   2.379   2.785   3.012 -2.6757  0.7629  0.3696
 2786SOL     OW 8492   0.396   2.832   2.609  0.2652  0.4532 -0.6076
 2786SOL    HW1 8493   0.375   2.770   2.540  1.9098 -2.2115  1.0853
 2786SOL    HW2 8494   0.362   2.791   2.689  2.7504  0.9032  0.7779
 2787SOL     OW 8495   0.362   1.684   2.638 -0.1206 -0.1513 -0.5491
 2787SOL    HW1 8496   0.396   1.596   2.657 -1.2758 -0.6448 -0.6944
 2787SOL    HW2 8497   0.394   1.738   2.710  1.6039 -0.4190 -1.0751
 2788SOL     OW 8498   3.200   1.023   1.060  0.2751 -0.6452 -0.0877
 2788SOL    HW1 8499   3.189   0.972   1.140 -1.0201  0.9420  0.8001
 2788SOL    HW2 8500   3.294   1.023   1.044  0.5661 -0.9010  1.4984
 2789SOL     OW 8501   1.174   4.098   1.249  0.0909  0.3788  0.2419
 2789SOL    HW1 8502   1.128   4.045   1.183  0.9001  0.7323 -0.6210
 2789SOL    HW2 8503   1.206   4.034   1.313 -2.3187  0.1801  1.3619
 2790SOL     OW 8504   1.199   2.653   4.680 -0.6013  0.6014 -0.1791
 2790SOL    HW1 8505   1.287   2.650   4.719 -0.6957 -1.1916 -0.0322
 2790SOL    HW2 8506   1.199   2.584   4.614 -2.5250 -0.9188  1.2712
 2791SOL     OW 8507   0.438   3.119   3.810 -0.3741 -0.1926 -0.0342
 2791SOL    HW1 8508   0.456   3.090   3.900 -1.5070  0.1786  0.3296
 2791SOL    HW2 8509   0.519   3.099   3.762  0.6193  0.4759  1.2737
 2792SOL     OW 8510   2.840   0.495   0.852  0.1195 -0.3035 -0.6147
 2792SOL    HW1 8511   2.844   0.422   0.914 -0.7342 -0.2766 -0.5126
 2792SOL    HW2 8512   2.869   0.457   0.769  0.5561 -0.5272 -0.3644
 2793SOL     OW 8513   2.042   3.663   2.260 -0.0984 -0.0469 -0.0910
 2793SOL    HW1 8514   1.993   3.741   2.232  0.9677  1.1190  1.1503
 2793SOL    HW2 8515   2.132   3.680   2.233  0.2571 -0.5658  0.7543
 2794SOL     OW 8516   0.149   1.164   1.570 -0.3564 -0.4223 -0.1990
 2794SOL    HW1 8517   0.155   1.243   1.624 -0.5768 -0.3655 -0.2594
 2794SOL    HW2 8518   0.124   1.196   1.484 -1.7777 -0.6783  0.0910
 2795SOL     OW 8519   2.247   1.429   1.828  0.1476  0.3900  0.7657
 2795SOL    HW1 8520   2.267   1.338   1.807  0.2257  0.8095 -1.1570
 2795SOL    HW2 8521   2.313   1.454   1.893  1.5731 -0.2654 -0.3732
 2796SOL     OW 8522   1.995   3.494   0.867  0.2006  0.1622 -0.3524
 2796SOL    HW1 8523   2.033   3.554   0.803 -1.8191 -0.2775 -2.0903
 2796SOL    HW2 8524   1.934   3.441   0.816 -1.2845 -0.4450  1.9186
 2797SOL     OW 8525   4.451   3.322   2.629 -0.1329 -0.3180 -0.5575
 2797SOL    HW1 8526   4.423   3.280   2.547  2.3597 -0.9751 -1.1631
 2797SOL    HW2 8527   4.511   3.391   2.601 -0.6917  0.7150  0.6756
 2798SOL     OW 8528   4.901   0.957   0.280 -0.3436 -0.0639  1.0283
 2798SOL    HW1 8529   4.920   0.996   0.194 -0.6384  0.1673  1.0641
 2798SOL    HW2 8530   4.808   0.935   0.275 -1.3567  3.1624  2.4888
 2799SOL     OW 8531   0.503   3.470   3.231 -0.2650  0.1230 -0.7641
 2799SOL    HW1 8532   0.454   3.448   3.310  0.2397 -1.7297 -0.9239
 2799SOL    HW2 8533   0.462   3.418   3.162  0.3217  0.4877 -1.4039
 2800SOL     OW 8534   3.440   0.648   4.472  0.7185  0.1124 -0.2244
 2800SOL    HW1 8535   3.532   0.651   4.500  0.2637  2.9054  1.3125
 2800SOL    HW2 8536   3.401   0.726   4.510 -2.6798 -1.6567  0.2920
 2801SOL     OW 8537   2.021   0.646   3.073 -0.3215  0.5454  0.4033
 2801SOL    HW1 8538   1.935   0.606   3.065  0.0758 -0.4773  1.0501
 2801SOL    HW2 8539   2.081   0.572   3.086  1.0417  0.9932 -2.5907
 2802SOL     OW 8540   3.144   2.266   2.246 -0.0500 -0.1642  0.1906
 2802SOL    HW1 8541   3.177   2.177   2.239 -1.2843 -0.6724  0.4816
 2802SOL    HW2 8542   3.087   2.277   2.170 -0.2543  0.2069  0.3929
 2803SOL     OW 8543   0.009   0.814   4.439 -0.1595  0.4431  0.4675
 2803SOL    HW1 8544  -0.029   0.733   4.404  1.0202 -0.7401  1.7725
 2803SOL    HW2 8545   0.099   0.790   4.463 -0.0504  1.9059  1.6809
 2804SOL     OW 8546   2.438   3.936   3.088  0.4654 -0.0574  0.1477
 2804SOL    HW1 8547   2.418   4.003   3.155 -0.0196 -0.0137 -0.0318
 2804SOL    HW2 8548   2.446   3.986   3.007 -2.3880 -0.4108 -0.4705
 2805SOL     OW 8549   4.705   4.789   1.143  0.5185 -0.2938  0.0242
 2805SOL    HW1 8550   4.721   4.782   1.237  0.6515 -0.7061 -0.0257
 2805SOL    HW2 8551   4.792   4.789   1.104  0.4947  0.7883 -0.0457
 2806SOL     OW 8552   3.555   2.122   1.551  0.3671  0.0817 -0.4091
 2806SOL    HW1 8553   3.512   2.057   1.607  0.3410  0.8349  0.4720
 2806SOL    HW2 8554   3.506   2.203   1.566  1.9705  0.9389  0.5113
 2807SOL     OW 8555   2.926   2.093   4.630 -0.0565 -0.7077  0.3806
 2807SOL    HW1 8556   2.849   2.090   4.574 -0.5929  1.0162  0.9588
 2807SOL    HW2 8557   2.929   2.183   4.663  3.4598 -0.0093 -1.3347
 2808SOL     OW 8558   4.807   1.164   3.690  0.5092 -0.0031  0.0432
 2808SOL    HW1 8559   4.750   1.124   3.625  0.9635 -0.8788  0.1700
 2808SOL    HW2 8560   4.785   1.257   3.687 -0.1966 -0.1806 -0.6284
 2809SOL     OW 8561   3.126   1.733   0.250  0.1027 -0.0698 -0.3270
 2809SOL    HW1 8562   3.094   1.815   0.212 -0.6451 -0.9036 -1.5768
 2809SOL    HW2 8563   3.174   1.690   0.180 -0.0901 -1.0060  0.0824
 2810SOL     OW 8564   0.287   3.352   2.817  0.6059 -0.2479  0.1643
 2810SOL    HW1 8565   0.195   3.376   2.831  0.1624 -0.8315 -1.5355
 2810SOL    HW2 8566   0.303   3.373   2.725  1.2730 -2.9382 -0.4111
 2811SOL     OW 8567   1.440   5.028   1.744 -0.3026 -0.2062  0.1933
 2811SOL    HW1 8568   1.466   4.936   1.738  1.2770  0.3125 -2.9287
 2811SOL    HW2 8569   1.345   5.026   1.741 -0.4241 -1.7485  2.2244
 2812SOL     OW 8570   3.757   1.612   3.381 -0.0491 -0.1872  0.3401
 2812SOL    HW1 8571   3.773   1.648   3.293  0.7351 -0.5729  0.3128
 2812SOL    HW2 8572   3.841   1.623   3.426  0.0995 -1.5933  0.4582
 2813SOL     OW 8573   2.977   1.264   1.238 -0.0970 -0.7086  0.2147
 2813SOL    HW1 8574   3.047   1.296   1.182  0.7785 -0.5176  1.3728
 2813SOL    HW2 8575   3.019   1.201   1.296 -0.9948 -0.9896  0.5916
 2814SOL     OW 8576   3.115   2.374   3.649 -0.5544  0.2156 -0.4434
 2814SOL    HW1 8577   3.183   2.325   3.603 -1.5611 -0.3075 -1.4111
 2814SOL    HW2 8578   3.076   2.429   3.581 -1.0431  0.5791  0.1235
 2815SOL     OW 8579   1.241   1.402   2.956 -0.2923  0.1406 -0.6253
 2815SOL    HW1 8580   1.277   1.484   2.991 -0.7066 -0.0015  0.1736
 2815SOL    HW2 8581   1.296   1.333   2.994 -1.4300 -0.0842  0.7118
 2816SOL     OW 8582   4.309   4.144   4.409  0.2848 -0.0306  0.3301
 2816SOL    HW1 8583   4.375   4.138   4.339 -0.2194 -0.2901 -0.1314
 2816SOL    HW2 8584   4.307   4.237   4.432 -0.6198  0.3388 -1.0712
 2817SOL     OW 8585   2.066   3.445   1.135  0.1368 -0.0740  0.4511
 2817SOL    HW1 8586   2.057   3.462   1.042 -2.2545  1.0593  0.8208
 2817SOL    HW2 8587   2.023   3.360   1.149 -0.6622  0.3568  0.6806
 2818SOL     OW 8588   2.641   4.922   3.652  0.2927 -0.0182  0.6776
 2818SOL    HW1 8589   2.618   4.829   3.656  0.6817 -0.1146  0.7282
 2818SOL    HW2 8590   2.717   4.926   3.595 -0.0699  0.3439  0.2118
 2819SOL     OW 8591   3.694   1.639   1.855  0.1578  0.2349  0.0230
 2819SOL    HW1 8592   3.735   1.606   1.775  0.6006  1.0860 -0.1084
 2819SOL    HW2 8593   3.642   1.713   1.826  1.4172  1.4271  0.6981
 2820SOL     OW 8594   4.416   4.415   1.856  0.4407 -0.2485 -0.5135
 2820SOL    HW1 8595   4.457   4.477   1.795  0.7882  1.6453  1.4782
 2820SOL    HW2 8596   4.461   4.431   1.939 -0.2823 -2.4188  0.3611
 2821SOL     OW 8597   4.689   4.052   1.439  0.9282  0.4473 -0.1181
 2821SOL    HW1 8598   4.664   3.960   1.450  0.4815  0.5324 -0.3707
 2821SOL    HW2 8599   4.633   4.083   1.368  3.3227  0.0545 -2.3172
 2822SOL     OW 8600   3.374   0.820   3.444 -0.1406 -0.2724 -0.7396
 2822SOL    HW1 8601   3.330   0.782   3.368 -0.2373  0.8823 -1.2933
 2822SOL    HW2 8602   3.359   0.914   3.434  1.1010  0.0089 -0.0777
 2823SOL     OW 8603   0.597   0.915   4.044 -0.1950 -0.4011  0.5216
 2823SOL    HW1 8604   0.669   0.892   4.103  1.0122  1.5172 -0.0866
 2823SOL    HW2 8605   0.576   1.006   4.067  1.5438  1.1148 -2.9920
 2824SOL     OW 8606   3.748   3.998   0.831 -0.2830 -0.7785 -0.4929
 2824SOL    HW1 8607   3.702   4.063   0.778 -0.1230 -1.6914 -1.8061
 2824SOL    HW2 8608   3.760   4.040   0.916 -1.0658  0.5174 -0.9950
 2825SOL     OW 8609   3.188   3.289   0.393 -0.4056  0.0021  0.0355
 2825SOL    HW1 8610   3.168   3.321   0.305  0.9938  0.6580 -0.0634
 2825SOL    HW2 8611   3.191   3.367   0.447  0.2085 -0.2427  0.3674
 2826SOL     OW 8612   3.491   4.181   4.930  0.0294  0.0691 -0.1057
 2826SOL    HW1 8613   3.551   4.139   4.869  1.4418 -0.6337  1.6678
 2826SOL    HW2 8614   3.429   4.112   4.954  0.1526  0.0233  0.0835
 2827SOL     OW 8615   2.888   0.773   0.437 -0.0144 -0.1700 -0.2614
 2827SOL    HW1 8616   2.925   0.816   0.515 -0.9609  2.1471 -1.0189
 2827SOL    HW2 8617   2.842   0.842   0.391 -3.4603 -2.3987 -0.5550
 2828SOL     OW 8618   0.943   0.735   1.276  0.0002 -0.6003 -0.4235
 2828SOL    HW1 8619   0.887   0.810   1.294 -0.1049 -1.0064  1.1284
 2828SOL    HW2 8620   0.883   0.661   1.272  0.3355 -0.9542  0.6600
 2829SOL     OW 8621   1.710   2.680   4.992  0.4053 -0.2338 -0.0800
 2829SOL    HW1 8622   1.711   2.770   5.025 -0.3322 -0.6079  1.0347
 2829SOL    HW2 8623   1.740   2.687   4.902 -0.8509  1.3073 -0.4217
 2830SOL     OW 8624   4.034   4.723   2.979  0.1179 -0.1304  0.3942
 2830SOL    HW1 8625   4.107   4.691   3.032 -1.3593 -3.4146  0.7014
 2830SOL    HW2 8626   3.957   4.712   3.035 -1.0827 -0.4081 -1.2297
 2831SOL     OW 8627   0.924   4.165   3.025 -0.1415  0.3519 -0.2528
 2831SOL    HW1 8628   0.839   4.134   2.994 -0.5930 -2.4339  3.0992
 2831SOL    HW2 8629   0.984   4.145   2.953 -1.8614 -0.2801 -1.5996
 2832SOL     OW 8630   2.109   3.229   2.829  0.8869 -0.0759 -0.0416
 2832SOL    HW1 8631   2.083   3.291   2.898  1.7501  1.0060 -0.6591
 2832SOL    HW2 8632   2.162   3.164   2.875  3.1688  1.7384  0.0567
 2833SOL     OW 8633   1.964   4.246   2.027 -0.2419  0.3227  0.5761
 2833SOL    HW1 8634   1.986   4.294   1.947  0.1192 -0.0745  0.4298
 2833SOL    HW2 8635   2.048   4.233   2.071 -0.5585  1.5807  1.6377
 2834SOL     OW 8636   2.008   2.947   2.869 -0.2710  0.5180  0.2052
 2834SOL    HW1 8637   2.086   2.907   2.907 -1.4697 -2.5384 -0.2200
 2834SOL    HW2 8638   1.980   3.012   2.934  0.4806 -1.0752  2.2471
 2835SOL     OW 8639   3.877   0.484   3.757 -0.4474  0.5402  0.2335
 2835SOL    HW1 8640   3.943   0.543   3.720 -0.3996  0.5437  0.3246
 2835SOL    HW2 8641   3.794   0.525   3.734 -0.4624 -0.0981 -0.9582
 2836SOL     OW 8642   0.990   4.121   2.680  0.7808 -0.2659  0.3122
 2836SOL    HW1 8643   1.011   4.058   2.611  0.3020 -0.1912  0.0935
 2836SOL    HW2 8644   1.068   4.123   2.735  0.8006 -1.0613  0.3284
 2837SOL     OW 8645   1.503   1.034   0.924  0.1180 -1.0350  0.4613
 2837SOL    HW1 8646   1.534   1.124   0.926 -1.1979 -0.5053 -0.8847
 2837SOL    HW2 8647   1.459   1.021   1.007 -1.2584  0.1902 -0.0382
 2838SOL     OW 8648   4.741   3.007   0.110 -0.2113 -0.3887 -0.5254
 2838SOL    HW1 8649   4.747   3.033   0.018  3.0004 -2.2855 -1.0053
 2838SOL    HW2 8650   4.785   3.078   0.157  2.6454 -1.6191 -1.1203
 2839SOL     OW 8651   2.387   4.250   0.064 -0.3558 -0.3761 -0.3671
 2839SOL    HW1 8652   2.341   4.220   0.142  0.5374  0.6303  0.5735
 2839SOL    HW2 8653   2.347   4.335   0.044  0.6924  0.2581  0.1432
 2840SOL     OW 8654   3.689   4.608   4.883  0.5715 -0.6648  0.1863
 2840SOL    HW1 8655   3.758   4.611   4.817 -1.7190  0.2442 -2.3223
 2840SOL    HW2 8656   3.677   4.515   4.901  0.4494 -1.0366 -1.6380
 2841SOL     OW 8657   3.996   4.763   0.442 -0.1892 -0.4039 -0.1663
 2841SOL    HW1 8658   3.926   4.739   0.503  1.1220  0.6713  1.8465
 2841SOL    HW2 8659   3.986   4.858   0.431  0.8513 -0.2624  0.0453
 2842SOL     OW 8660   2.899   0.235   1.458  0.2414 -0.1645 -0.0060
 2842SOL    HW1 8661   2.963   0.181   1.412  0.9408  0.6416  0.0100
 2842SOL    HW2 8662   2.899   0.202   1.548  2.0749  1.0670  0.4909
 2843SOL     OW 8663   0.895   1.827   2.345  0.3357 -0.5063 -0.0275
 2843SOL    HW1 8664   0.903   1.765   2.273 -0.4157  0.6976 -1.2118
 2843SOL    HW2 8665   0.966   1.890   2.331  0.5910 -0.6295  0.6731
 2844SOL     OW 8666   1.078   4.233   3.232 -0.8388 -0.1160  0.1151
 2844SOL    HW1 8667   1.011   4.237   3.164 -0.9836 -0.1279  0.2557
 2844SOL    HW2 8668   1.050   4.297   3.297 -0.8587 -0.3099  0.3019
 2845SOL     OW 8669   3.783   4.907   4.929 -0.3680  0.0090  0.5912
 2845SOL    HW1 8670   3.859   4.891   4.985  0.9411 -0.2277 -1.1594
 2845SOL    HW2 8671   3.758   4.820   4.897 -0.0534  0.2810 -0.4479
 2846SOL     OW 8672   2.667   0.989   2.320  0.0890 -0.3249  0.2325
 2846SOL    HW1 8673   2.657   1.069   2.270  2.1112 -0.9493 -1.3319
 2846SOL    HW2 8674   2.587   0.940   2.303 -0.3061  0.5202 -0.4318
 2847SOL     OW 8675   0.193   0.253   4.510  0.0381  0.3063  0.4566
 2847SOL    HW1 8676   0.139   0.208   4.575  0.4816 -1.1790 -0.1646
 2847SOL    HW2 8677   0.178   0.205   4.429  1.4242  0.5610  0.0262
 2848SOL     OW 8678   4.552   1.470   2.018 -0.0093 -0.7746  0.5421
 2848SOL    HW1 8679   4.559   1.379   2.046 -1.4367 -0.7557  1.0639
 2848SOL    HW2 8680   4.464   1.477   1.982  0.1726  0.3390  0.2733
 2849SOL     OW 8681   3.291   2.513   5.002  0.8032  0.3195  0.0118
 2849SOL    HW1 8682   3.366   2.542   5.054  1.1353  1.3105 -0.9924
 2849SOL    HW2 8683   3.310   2.541   4.913 -0.8170  0.7132 -0.2564
 2850SOL     OW 8684   4.001   0.007   4.230  0.1084  0.5879  0.1236
 2850SOL    HW1 8685   3.994   0.102   4.229 -0.5639  0.5586  1.2973
 2850SOL    HW2 8686   4.061  -0.013   4.302 -2.2236  0.0193  2.0145
 2851SOL     OW 8687   4.140   1.480   3.271 -0.3326  0.1977 -0.0658
 2851SOL    HW1 8688   4.202   1.435   3.328 -0.2841 -0.7774 -0.8589
 2851SOL    HW2 8689   4.177   1.567   3.260  2.3777 -1.0767 -2.5860
 2852SOL     OW 8690   0.960   0.230   0.837  0.4161  0.2789 -0.2404
 2852SOL    HW1 8691   1.056   0.234   0.840  0.4149  1.9100 -1.1817
 2852SOL    HW2 8692   0.941   0.188   0.753  0.3258  0.9974 -0.5903
 2853SOL     OW 8693   1.306   1.796   2.583  0.0030 -0.0128  0.3675
 2853SOL    HW1 8694   1.312   1.817   2.676  0.2125  2.4287 -0.1299
 2853SOL    HW2 8695   1.236   1.730   2.578 -0.5219  0.3361  2.1715
 2854SOL     OW 8696   3.295   3.038   2.951  0.1764 -0.1008 -0.3844
 2854SOL    HW1 8697   3.328   2.974   3.014  0.4377 -0.7898 -1.1973
 2854SOL    HW2 8698   3.373   3.089   2.927  0.2844 -0.4825 -0.8717
 2855SOL     OW 8699   0.619   1.497   3.684 -0.4192 -0.3775  0.3904
 2855SOL    HW1 8700   0.582   1.463   3.603 -3.8558 -1.2542  2.1088
 2855SOL    HW2 8701   0.622   1.421   3.743 -0.4090  0.6801  1.8199
 2856SOL     OW 8702   3.329   1.660   2.145 -0.6225  0.6834 -0.0910
 2856SOL    HW1 8703   3.284   1.695   2.221 -0.2690 -2.0916  1.5152
 2856SOL    HW2 8704   3.419   1.691   2.153 -0.2324 -0.7242  1.4830
 2857SOL     OW 8705   2.959   0.290   0.684  0.7710 -0.1129  0.7276
 2857SOL    HW1 8706   2.923   0.203   0.665 -1.2886  0.5198  1.4460
 2857SOL    HW2 8707   2.973   0.329   0.598 -3.1049  0.6300  0.2140
 2858SOL     OW 8708   1.592   1.373   2.137 -0.0806  0.4670 -0.6931
 2858SOL    HW1 8709   1.654   1.423   2.085  1.2681 -0.7224 -0.2675
 2858SOL    HW2 8710   1.630   1.286   2.143 -1.7672 -0.2805 -0.3568
 2859SOL     OW 8711   4.094   1.221   0.704  0.1447 -0.2514  0.0770
 2859SOL    HW1 8712   4.127   1.131   0.698  0.8716 -0.0448  0.7771
 2859SOL    HW2 8713   4.155   1.273   0.652  0.4461  0.0150  0.6936
 2860SOL     OW 8714   1.851   2.298   1.240  0.0888  0.8478  0.1522
 2860SOL    HW1 8715   1.854   2.325   1.332 -1.7304 -1.0203  0.8527
 2860SOL    HW2 8716   1.769   2.336   1.207  0.2673  0.7356 -0.4350
 2861SOL     OW 8717   2.901   1.486   1.654  0.0178 -0.1460 -0.2499
 2861SOL    HW1 8718   2.964   1.509   1.722 -0.9533 -0.6347  0.8489
 2861SOL    HW2 8719   2.923   1.396   1.630 -0.1739 -0.2750  0.0484
 2862SOL     OW 8720   0.256   4.657   0.200  0.1366  1.0501 -1.1556
 2862SOL    HW1 8721   0.250   4.562   0.201 -3.3252  1.0399  1.9801
 2862SOL    HW2 8722   0.343   4.676   0.234  0.3756 -1.0487 -0.4490
 2863SOL     OW 8723   3.944   1.821   4.023 -0.3043  0.3764 -0.2726
 2863SOL    HW1 8724   3.945   1.737   3.976 -0.2121  1.0350 -1.4910
 2863SOL    HW2 8725   3.893   1.803   4.102  2.8762 -1.8408  1.4778
 2864SOL     OW 8726   1.937   1.002   1.010 -0.0812 -0.1622 -0.6313
 2864SOL    HW1 8727   1.943   1.098   1.011 -1.7724 -0.0369  0.4258
 2864SOL    HW2 8728   2.020   0.974   0.970  0.3377  1.7339 -1.2281
 2865SOL     OW 8729   2.012   2.998   2.598 -0.2890  0.0053  0.0844
 2865SOL    HW1 8730   2.104   2.991   2.572 -0.7090  0.8911 -1.7805
 2865SOL    HW2 8731   2.013   2.978   2.692  2.0755  1.7530  0.5568
 2866SOL     OW 8732   4.985   4.554   1.530 -0.8744  0.4866  0.6067
 2866SOL    HW1 8733   4.950   4.501   1.458 -0.5228  0.1958  0.6487
 2866SOL    HW2 8734   4.914   4.556   1.594 -0.4940 -0.9027  1.1096
 2867SOL     OW 8735   1.749   4.415   4.900  0.0011  0.5040  0.4949
 2867SOL    HW1 8736   1.779   4.484   4.959  0.3092 -0.3176  1.3177
 2867SOL    HW2 8737   1.803   4.339   4.922  1.1209  0.5314 -1.7913
 2868SOL     OW 8738   3.025   2.144   0.403 -0.3377  0.0290 -0.5400
 2868SOL    HW1 8739   3.025   2.072   0.466  0.5090  0.2847 -0.2337
 2868SOL    HW2 8740   3.016   2.100   0.318 -2.7122 -0.2357 -0.2119
 2869SOL     OW 8741   2.144   0.402   1.775  0.0879 -0.4177 -1.4290
 2869SOL    HW1 8742   2.182   0.422   1.689 -1.4474 -1.4649 -2.3999
 2869SOL    HW2 8743   2.091   0.479   1.795  0.5777 -0.1005 -1.3210
 2870SOL     OW 8744   1.482   2.248   4.636 -0.1150 -0.4005  0.1026
 2870SOL    HW1 8745   1.552   2.228   4.698  0.4421  0.5350 -0.2138
 2870SOL    HW2 8746   1.492   2.182   4.567  0.2034 -0.5175  0.2557
 2871SOL     OW 8747   3.063   4.752   4.040 -0.4265 -0.2824 -0.3165
 2871SOL    HW1 8748   3.107   4.709   4.113 -2.0051  0.2815  1.0359
 2871SOL    HW2 8749   3.128   4.754   3.970  1.2074 -0.6670  1.1280
 2872SOL     OW 8750   4.724   3.549   4.106  0.2011 -0.7265  0.2747
 2872SOL    HW1 8751   4.813   3.535   4.074 -0.3438 -1.9160 -0.7992
 2872SOL    HW2 8752   4.668   3.524   4.033 -1.0526 -1.3743  1.4055
 2873SOL     OW 8753   4.539   2.728   2.425  0.4864  0.1420 -0.0582
 2873SOL    HW1 8754   4.570   2.659   2.483 -1.1625  0.5285  1.3592
 2873SOL    HW2 8755   4.449   2.704   2.405 -1.1577  3.1676  2.7434
 2874SOL     OW 8756   3.304   0.851   2.508  0.2527 -0.0349  0.0214
 2874SOL    HW1 8757   3.372   0.811   2.564 -1.4035 -1.0465  1.4416
 2874SOL    HW2 8758   3.278   0.780   2.449  1.1631  0.6821 -1.2770
 2875SOL     OW 8759   2.445   0.593   3.988  0.4515 -0.3938 -0.0330
 2875SOL    HW1 8760   2.454   0.681   4.025  0.4709 -1.0244  1.5680
 2875SOL    HW2 8761   2.433   0.607   3.894  1.0242  1.2816  0.1062
 2876SOL     OW 8762   0.151   2.962   0.304 -0.2867 -0.2062 -0.5926
 2876SOL    HW1 8763   0.082   2.988   0.365  0.0596  0.3994 -0.4522
 2876SOL    HW2 8764   0.164   2.869   0.321  0.2449  0.0925  0.7018
 2877SOL     OW 8765   2.398   3.545   1.103  0.7260  0.4288  0.2773
 2877SOL    HW1 8766   2.347   3.582   1.031 -2.3176 -1.1679  1.4064
 2877SOL    HW2 8767   2.434   3.621   1.149  0.4196  1.5902 -1.3220
 2878SOL     OW 8768   1.979   0.913   4.441  0.1711  0.5193  0.0700
 2878SOL    HW1 8769   2.014   0.825   4.426  0.6526  0.3652  1.9011
 2878SOL    HW2 8770   2.002   0.933   4.531 -1.5422  1.7961  0.2686
 2879SOL     OW 8771   4.350   1.396   0.834  0.4854 -0.2974  0.8069
 2879SOL    HW1 8772   4.375   1.470   0.889 -0.1207 -0.1304  0.8627
 2879SOL    HW2 8773   4.382   1.419   0.747  0.4463 -0.0444  0.8576
 2880SOL     OW 8774   1.614   4.862   4.345  0.0627  0.6301 -0.3397
 2880SOL    HW1 8775   1.705   4.884   4.326  0.7779 -0.4513  1.5029
 2880SOL    HW2 8776   1.582   4.819   4.265  1.5725 -0.0729 -0.5975
 2881SOL     OW 8777   0.604   0.563   4.511  0.6169  0.0054 -0.4033
 2881SOL    HW1 8778   0.639   0.490   4.460  0.3217  0.3333 -1.0951
 2881SOL    HW2 8779   0.511   0.541   4.523  0.9741 -0.7454  1.2171
 2882SOL     OW 8780   1.514   3.124   4.477  0.0592  0.1871  0.6149
 2882SOL    HW1 8781   1.436   3.170   4.445 -0.0212 -0.7678 -0.6374
 2882SOL    HW2 8782   1.587   3.181   4.454 -0.1535  0.3714  0.3917
 2883SOL     OW 8783   3.406   3.128   1.662 -0.1964  0.2659 -0.1654
 2883SOL    HW1 8784   3.395   3.035   1.641 -1.5192 -0.2043  2.2650
 2883SOL    HW2 8785   3.338   3.172   1.611 -0.2268 -0.2284 -0.5607
 2884SOL     OW 8786   2.674   3.564   2.234 -0.7579 -0.0760  0.4217
 2884SOL    HW1 8787   2.683   3.565   2.139  2.6536  1.3966  0.6096
 2884SOL    HW2 8788   2.677   3.472   2.258  0.6273 -0.3671 -0.7920
 2885SOL     OW 8789   0.961   4.375   1.807  0.3991 -0.1354  0.1857
 2885SOL    HW1 8790   1.052   4.395   1.786  0.6225  0.1071  1.3266
 2885SOL    HW2 8791   0.965   4.297   1.861 -0.1760 -0.8528 -0.7723
 2886SOL     OW 8792   3.897   1.580   0.714  0.4326 -0.4057  0.3070
 2886SOL    HW1 8793   3.896   1.676   0.708 -0.0509 -0.3781  0.7138
 2886SOL    HW2 8794   3.978   1.560   0.760 -1.2358  0.0673  3.7605
 2887SOL     OW 8795   3.636   3.318   2.276 -0.4016  0.3648 -0.0175
 2887SOL    HW1 8796   3.570   3.310   2.344 -0.3430  2.7164  0.3710
 2887SOL    HW2 8797   3.714   3.275   2.314 -0.7282  0.5374  0.8730
 2888SOL     OW 8798   3.424   4.779   3.491  0.8896 -0.2849 -0.1424
 2888SOL    HW1 8799   3.437   4.812   3.402 -0.0676  0.9896  0.1722
 2888SOL    HW2 8800   3.407   4.685   3.479 -1.7692  0.2907 -1.5819
 2889SOL     OW 8801   2.970   2.803   1.608 -0.6611  0.1391 -0.0384
 2889SOL    HW1 8802   2.926   2.877   1.565  1.1181  0.7192 -0.9542
 2889SOL    HW2 8803   2.977   2.830   1.699  1.4745  1.9684 -0.6410
 2890SOL     OW 8804   0.314   1.529   4.351  0.0502  0.1933 -0.0329
 2890SOL    HW1 8805   0.227   1.509   4.387 -0.0767 -2.2529 -1.4782
 2890SOL    HW2 8806   0.373   1.520   4.426 -1.0138  3.7274  1.4276
 2891SOL     OW 8807   0.404   3.048   4.838 -0.4303 -0.1994  0.0613
 2891SOL    HW1 8808   0.495   3.045   4.867 -0.3891 -2.3846 -0.1106
 2891SOL    HW2 8809   0.365   3.120   4.887  1.2948  0.5297  0.4176
 2892SOL     OW 8810   1.134   0.645   1.749  0.1403  0.6769  0.4321
 2892SOL    HW1 8811   1.227   0.624   1.740 -0.3204 -2.1207  1.0178
 2892SOL    HW2 8812   1.103   0.654   1.659  0.6448 -0.2875  0.1399
 2893SOL     OW 8813   0.056   2.163   4.145 -0.9032 -0.0851 -0.1626
 2893SOL    HW1 8814  -0.037   2.176   4.126 -1.7336 -2.4035  1.8752
 2893SOL    HW2 8815   0.097   2.154   4.059 -2.7539 -0.1950 -1.0786
 2894SOL     OW 8816   4.983   4.011   2.120  0.3463 -0.4140  0.2421
 2894SOL    HW1 8817   4.916   3.963   2.168  0.3374  1.1373  1.8840
 2894SOL    HW2 8818   4.935   4.068   2.061  0.2146  0.2619  0.9880
 2895SOL     OW 8819   2.921   3.178   1.224 -0.1271 -0.9141 -0.6271
 2895SOL    HW1 8820   2.970   3.204   1.146  1.6807  1.3533  1.1000
 2895SOL    HW2 8821   2.967   3.100   1.256  0.0587 -0.9675 -1.0239
 2896SOL     OW 8822   0.757   2.291   3.618  0.7991 -0.1273 -0.2043
 2896SOL    HW1 8823   0.690   2.259   3.558 -0.4448 -0.2492  1.1854
 2896SOL    HW2 8824   0.777   2.217   3.675 -0.2464  0.7548  1.4084
 2897SOL     OW 8825   3.495   2.804   0.782 -0.0481 -0.1541  0.2076
 2897SOL    HW1 8826   3.409   2.834   0.810 -0.3139 -0.1247 -0.6182
 2897SOL    HW2 8827   3.494   2.814   0.687  0.9747  0.1308  0.2157
 2898SOL     OW 8828   1.452   2.150   2.915 -0.1589 -0.3417 -0.2346
 2898SOL    HW1 8829   1.381   2.209   2.886  0.2748  0.0851 -0.4476
 2898SOL    HW2 8830   1.525   2.171   2.857  1.6838  2.4683  2.7565
 2899SOL     OW 8831   2.635   0.341   2.571 -0.0852 -0.2206 -0.2283
 2899SOL    HW1 8832   2.599   0.255   2.592 -0.2319  0.0585  0.7558
 2899SOL    HW2 8833   2.564   0.402   2.591 -0.2288  0.0891 -1.6017
 2900SOL     OW 8834   0.656   1.767   2.522  0.3113 -0.1726  0.2898
 2900SOL    HW1 8835   0.605   1.722   2.454  1.0057 -1.1857  0.4182
 2900SOL    HW2 8836   0.745   1.771   2.487  0.7334 -0.9283  1.2165
 2901SOL     OW 8837   4.864   2.494   4.659 -0.3230 -0.4680 -0.0155
 2901SOL    HW1 8838   4.912   2.515   4.579 -0.7728 -1.7992 -0.6600
 2901SOL    HW2 8839   4.778   2.533   4.647 -0.3885 -0.6634 -0.1670
 2902SOL     OW 8840   1.379   2.171   4.090 -0.5398  0.6815  0.9100
 2902SOL    HW1 8841   1.403   2.263   4.101 -2.1798  1.2361  0.1838
 2902SOL    HW2 8842   1.343   2.145   4.174  1.0559  0.3070  1.5078
 2903SOL     OW 8843   0.083   3.421   1.235  0.1012  0.2835  0.6191
 2903SOL    HW1 8844   0.014   3.471   1.279  0.8282  2.2863 -0.3808
 2903SOL    HW2 8845   0.056   3.418   1.144  0.6036 -0.2425  0.4823
 2904SOL     OW 8846   2.337   3.780   2.599  0.2767  0.3806  0.1297
 2904SOL    HW1 8847   2.389   3.759   2.522  3.0812  2.2282  1.3450
 2904SOL    HW2 8848   2.314   3.696   2.637  1.3501 -0.5244 -1.1529
 2905SOL     OW 8849   1.402   0.097   3.369  1.0308  0.1247  0.7550
 2905SOL    HW1 8850   1.455   0.173   3.395 -0.2839  0.8079  1.5590
 2905SOL    HW2 8851   1.379   0.055   3.452  1.1638 -0.7586  0.3519
 2906SOL     OW 8852   4.172   1.596   4.111 -0.3746  0.2663  0.4029
 2906SOL    HW1 8853   4.241   1.629   4.054 -0.4701 -0.0168  0.1222
 2906SOL    HW2 8854   4.092   1.598   4.057 -0.4934  0.1398  0.5702
 2907SOL     OW 8855   4.091   3.617   4.606 -0.1301 -0.0205 -0.3945
 2907SOL    HW1 8856   4.129   3.544   4.655 -1.0998  0.2619  0.8452
 2907SOL    HW2 8857   4.149   3.628   4.531  1.7509 -0.1430  0.9618
 2908SOL     OW 8858   2.233   2.133   0.036  0.6509  0.3849 -0.5110
 2908SOL    HW1 8859   2.227   2.186   0.116  2.6018  0.9080 -0.6669
 2908SOL    HW2 8860   2.151   2.149  -0.009 -0.0110  0.9891  0.8353
 2909SOL     OW 8861   0.845   3.479   1.512  0.0385  0.5628  0.3335
 2909SOL    HW1 8862   0.882   3.567   1.504 -0.9296  0.8821 -1.1294
 2909SOL    HW2 8863   0.883   3.444   1.592  0.4618  2.3030  0.9388
 2910SOL     OW 8864   2.206   0.097   3.702  0.1838  0.1292  0.2469
 2910SOL    HW1 8865   2.194   0.188   3.674 -2.6358 -0.2147  0.0643
 2910SOL    HW2 8866   2.291   0.071   3.665 -0.2702  1.7964 -2.1542
 2911SOL     OW 8867   0.135   4.842   0.770 -0.6415 -0.5104  0.3391
 2911SOL    HW1 8868   0.119   4.893   0.690  0.2983 -0.3415  0.2432
 2911SOL    HW2 8869   0.229   4.824   0.767 -0.7388 -1.1360  1.0388
 2912SOL     OW 8870   0.212   2.855   2.301 -0.2857  0.5005 -0.5044
 2912SOL    HW1 8871   0.247   2.781   2.351  2.5923  2.4840  0.7239
 2912SOL    HW2 8872   0.159   2.904   2.364 -0.1477  0.7589 -0.5871
 2913SOL     OW 8873   1.348   4.318   1.392 -0.5070  0.2087 -0.0454
 2913SOL    HW1 8874   1.316   4.245   1.446 -3.8807  0.6943 -1.1200
 2913SOL    HW2 8875   1.289   4.319   1.317  1.6441  1.9451 -1.8242
 2914SOL     OW 8876   3.986   2.082   3.859 -0.2260  0.1722  0.4879
 2914SOL    HW1 8877   4.035   2.000   3.855 -0.2585  0.1880 -0.3449
 2914SOL    HW2 8878   3.981   2.102   3.952  0.0708 -0.5981  0.6773
 2915SOL     OW 8879   2.338   2.340   1.127  0.5638  0.6339 -0.5282
 2915SOL    HW1 8880   2.283   2.394   1.184  0.9862  1.5863 -0.9949
 2915SOL    HW2 8881   2.316   2.250   1.150 -2.0492  0.9287 -1.4455
 2916SOL     OW 8882   0.214   0.685   3.410 -0.5148 -0.1086  0.0277
 2916SOL    HW1 8883   0.219   0.703   3.504 -2.0899 -0.2919  0.1671
 2916SOL    HW2 8884   0.120   0.685   3.391 -0.2154  2.2849 -1.9885
 2917SOL     OW 8885   1.513   0.901   1.604  0.2969  0.4922 -0.7627
 2917SOL    HW1 8886   1.433   0.940   1.570  1.0855  2.2913 -0.6449
 2917SOL    HW2 8887   1.577   0.972   1.604  1.2416 -0.2613  1.3522
 2918SOL     OW 8888   4.622   1.597   3.871 -0.2950 -0.3357 -0.0356
 2918SOL    HW1 8889   4.532   1.619   3.844 -1.1621 -1.3998  1.7628
 2918SOL    HW2 8890   4.612   1.515   3.918  1.9981 -1.6893 -1.7384
 2919SOL     OW 8891   1.533   2.123   1.051 -0.3199  0.6081  0.2803
 2919SOL    HW1 8892   1.451   2.110   1.098 -0.4776 -0.6332 -0.2881
 2919SOL    HW2 8893   1.585   2.179   1.108 -0.8567 -0.1112  1.5124
 2920SOL     OW 8894   3.959   3.036   3.760 -0.1806 -0.7675  0.0763
 2920SOL    HW1 8895   3.936   3.115   3.712 -0.6439 -0.0639  1.4050
 2920SOL    HW2 8896   4.025   3.065   3.824  1.4788 -1.9533 -0.9963
 2921SOL     OW 8897   0.408   2.114   1.918  0.0323  0.0710  0.4042
 2921SOL    HW1 8898   0.451   2.199   1.916 -0.2224  0.2393  1.4501
 2921SOL    HW2 8899   0.374   2.106   2.007 -0.7297 -0.7356  0.0640
 2922SOL     OW 8900   1.790   1.618   1.121 -0.3301 -0.5743 -0.5264
 2922SOL    HW1 8901   1.737   1.540   1.109 -0.8780 -0.0662 -1.5004
 2922SOL    HW2 8902   1.798   1.656   1.034 -1.9449  1.6423  0.2069
 2923SOL     OW 8903   2.889   2.358   2.533 -0.1570  0.5043  0.4129
 2923SOL    HW1 8904   2.875   2.288   2.469 -0.0221 -0.2939  1.2399
 2923SOL    HW2 8905   2.964   2.407   2.498  0.8237 -0.7709  0.6325
 2924SOL     OW 8906   1.846   2.118   3.364  0.5454  0.3756 -0.5467
 2924SOL    HW1 8907   1.919   2.056   3.363 -0.3664 -0.8447  1.6133
 2924SOL    HW2 8908   1.821   2.125   3.456 -2.3239  0.4144 -1.2240
 2925SOL     OW 8909   4.697   0.600   3.965  0.8768  0.3492 -0.2865
 2925SOL    HW1 8910   4.640   0.534   3.927  2.2809 -0.3895 -1.1711
 2925SOL    HW2 8911   4.640   0.648   4.026 -0.1016 -1.8943  0.6808
 2926SOL     OW 8912   0.752   3.378   1.049 -0.6302  0.2308  0.0071
 2926SOL    HW1 8913   0.756   3.350   0.958 -0.4516  1.5102 -0.3894
 2926SOL    HW2 8914   0.738   3.472   1.045 -0.4636  0.3288  1.3024
 2927SOL     OW 8915   3.018   0.885   1.635  0.6606  0.7814 -0.2297
 2927SOL    HW1 8916   2.956   0.911   1.703 -0.8621  0.3092 -1.3763
 2927SOL    HW2 8917   3.046   0.797   1.661 -1.8079 -0.4465 -1.3838
 2928SOL     OW 8918   1.359   2.909   0.021 -0.9002 -0.0289  0.2674
 2928SOL    HW1 8919   1.398   2.973   0.080  1.2204 -1.0360  0.0371
 2928SOL    HW2 8920   1.389   2.934  -0.066 -1.3418 -0.4268 -0.0058
 2929SOL     OW 8921   0.498   2.111   0.945  0.2308  0.0506 -0.4220
 2929SOL    HW1 8922   0.490   2.034   1.001 -0.7167  0.1051 -0.4650
 2929SOL    HW2 8923   0.517   2.183   1.005 -0.5451  0.0662 -0.1781
 2930SOL     OW 8924   3.858   3.810   4.461  0.4479  0.6161 -0.4892
 2930SOL    HW1 8925   3.818   3.726   4.441  0.4935  0.9956 -2.3189
 2930SOL    HW2 8926   3.952   3.794   4.457  0.4609  0.6546 -0.3509
 2931SOL     OW 8927   0.390   2.612   0.489 -0.2242 -0.7378 -0.6062
 2931SOL    HW1 8928   0.431   2.550   0.549 -0.6741 -0.3993  0.0697
 2931SOL    HW2 8929   0.403   2.575   0.403  1.3256 -0.7428 -0.4004
 2932SOL     OW 8930   3.041   1.285   4.790 -0.1435 -0.2608 -0.1023
 2932SOL    HW1 8931   3.059   1.360   4.846 -0.6300 -0.9759  1.0408
 2932SOL    HW2 8932   2.960   1.308   4.744  0.6192  0.6094 -1.0508
 2933SOL     OW 8933   2.628   3.003   4.334  0.4599  0.0199 -0.3461
 2933SOL    HW1 8934   2.608   3.085   4.290  1.2000  0.8128  0.7363
 2933SOL    HW2 8935   2.620   2.936   4.265 -0.7155  0.9024 -1.1083
 2934SOL     OW 8936   1.951   3.451   3.420 -0.0004  0.0619 -0.3849
 2934SOL    HW1 8937   1.909   3.533   3.446  0.4561  0.8405 -1.9638
 2934SOL    HW2 8938   1.993   3.471   3.336 -0.8191 -2.0877 -1.3877
 2935SOL     OW 8939   4.189   2.059   3.233 -0.0311  0.9632 -0.8634
 2935SOL    HW1 8940   4.142   1.978   3.210 -1.3035  0.7841  1.8565
 2935SOL    HW2 8941   4.267   2.058   3.178 -0.2104 -1.9224 -1.2628
 2936SOL     OW 8942   4.238   1.101   4.502 -0.0579  0.1294  0.5751
 2936SOL    HW1 8943   4.290   1.181   4.501  1.5866 -0.8568  1.8015
 2936SOL    HW2 8944   4.170   1.115   4.436  0.8385  2.0906  0.0113
 2937SOL     OW 8945   4.618   2.366   5.028  0.6920 -0.4474  1.1310
 2937SOL    HW1 8946   4.645   2.278   5.005 -2.2897 -1.0692 -0.4882
 2937SOL    HW2 8947   4.629   2.417   4.947  1.4221  0.4575  1.7713
 2938SOL     OW 8948   2.090   0.947   1.771 -0.8225 -0.0969  0.2019
 2938SOL    HW1 8949   2.013   0.941   1.827 -0.8226 -1.3061  0.0894
 2938SOL    HW2 8950   2.055   0.959   1.683 -0.8339  0.9211  0.3243
 2939SOL     OW 8951   4.216   1.174   2.416 -0.2117 -0.1110 -0.0819
 2939SOL    HW1 8952   4.152   1.239   2.446  1.9625  2.2196 -0.1859
 2939SOL    HW2 8953   4.179   1.140   2.334 -2.3210 -0.5326  0.9673
 2940SOL     OW 8954   2.851   0.091   4.831  0.5933  0.8736  0.0603
 2940SOL    HW1 8955   2.918   0.154   4.805  0.8664  0.0404 -1.3691
 2940SOL    HW2 8956   2.870   0.013   4.778  0.6032 -0.6251  2.1682
 2941SOL     OW 8957   2.229   1.435   4.950  0.0205  0.8413  0.4200
 2941SOL    HW1 8958   2.144   1.454   4.910 -1.7440 -2.3710  2.2406
 2941SOL    HW2 8959   2.271   1.376   4.888 -0.0619  0.6510  0.5456
 2942SOL     OW 8960   3.389   0.280   0.192 -0.3068 -0.7281  0.1129
 2942SOL    HW1 8961   3.318   0.216   0.198 -0.7755 -0.5327 -2.3393
 2942SOL    HW2 8962   3.345   0.365   0.193 -0.4901 -0.6131 -3.5393
 2943SOL     OW 8963   2.709   0.462   1.236  0.3305 -0.5630 -0.3281
 2943SOL    HW1 8964   2.756   0.471   1.154 -1.0639 -0.4302 -1.1555
 2943SOL    HW2 8965   2.619   0.439   1.210 -0.2508 -0.0952  1.1297
 2944SOL     OW 8966   3.410   0.019   3.276 -0.1831  0.5808  0.1400
 2944SOL    HW1 8967   3.457   0.074   3.339 -0.3610  0.4226  0.4155
 2944SOL    HW2 8968   3.325   0.062   3.265  0.4534  1.5160 -1.2628
 2945SOL     OW 8969   3.689   1.416   4.886  0.2212 -0.1990 -0.0985
 2945SOL    HW1 8970   3.656   1.365   4.812 -1.2715 -1.4279  1.3251
 2945SOL    HW2 8971   3.715   1.349   4.950  0.5690  0.8387  0.8630
 2946SOL     OW 8972   0.741   4.912   1.380  0.3927  0.1518  0.8633
 2946SOL    HW1 8973   0.775   4.889   1.467 -1.5762  1.9349  2.2180
 2946SOL    HW2 8974   0.816   4.952   1.335  1.4573 -0.8134  1.7057
 2947SOL     OW 8975   2.897   1.289   2.712 -0.1346 -0.4895  0.3473
 2947SOL    HW1 8976   2.840   1.230   2.662 -0.8247  0.1494  0.3655
 2947SOL    HW2 8977   2.955   1.231   2.761 -0.6226 -1.1529  0.1472
 2948SOL     OW 8978   4.174   2.251   2.119  0.4234  0.6958  0.3774
 2948SOL    HW1 8979   4.245   2.228   2.059  2.9324 -0.3410  3.4572
 2948SOL    HW2 8980   4.130   2.167   2.136  0.3415  0.7933  0.6563
 2949SOL     OW 8981   1.138   3.576   0.068 -0.0728 -0.2492  0.0536
 2949SOL    HW1 8982   1.106   3.503   0.122 -1.0450 -0.9793 -1.4334
 2949SOL    HW2 8983   1.233   3.567   0.069  0.0214  0.3521  2.3960
 2950SOL     OW 8984   4.571   4.492   4.160  0.3414  0.5472  0.0276
 2950SOL    HW1 8985   4.663   4.499   4.132  0.8375 -0.4543  1.3441
 2950SOL    HW2 8986   4.534   4.578   4.140  1.1916  0.5527 -1.7640
 2951SOL     OW 8987   2.026   1.906   1.809  0.3651  0.5155 -0.2323
 2951SOL    HW1 8988   1.952   1.916   1.869 -1.0150 -1.2564 -1.5348
 2951SOL    HW2 8989   2.015   1.819   1.771  2.2874  0.7986 -1.5973
 2952SOL     OW 8990   1.981   2.310   3.178 -0.0665 -0.4426  0.1592
 2952SOL    HW1 8991   1.908   2.282   3.234 -0.1956  1.0837  0.8177
 2952SOL    HW2 8992   2.057   2.263   3.213 -0.2206  0.1763  1.3830
 2953SOL     OW 8993   4.172   4.745   4.630  0.1619 -0.4253  0.3355
 2953SOL    HW1 8994   4.136   4.659   4.606  0.3255 -0.6995  1.0332
 2953SOL    HW2 8995   4.213   4.730   4.715  2.4782 -0.2577 -0.6856
 2954SOL     OW 8996   0.599   4.973   4.597 -0.2919 -0.0622 -0.6412
 2954SOL    HW1 8997   0.571   4.969   4.506 -1.1732  0.9856 -0.4395
 2954SOL    HW2 8998   0.520   4.995   4.646  0.4621  0.9443  0.1861
 2955SOL     OW 8999   2.786   3.015   4.553 -0.9400 -0.1724  0.2211
 2955SOL    HW1 9000   2.725   2.998   4.482 -1.5046  0.0625  0.6457
 2955SOL    HW2 9001   2.830   2.932   4.569 -0.5728 -0.1436 -0.6261
 2956SOL     OW 9002   3.034   0.900   2.998  0.0094  0.5089  0.9603
 2956SOL    HW1 9003   3.038   0.877   3.091  0.2304  1.1000  1.1022
 2956SOL    HW2 9004   2.944   0.927   2.984  0.2948  1.6897  1.3205
 2957SOL     OW 9005   3.035   4.732   1.996  0.3455  0.0552  0.1220
 2957SOL    HW1 9006   3.022   4.656   2.052 -0.0004  1.8012  2.5663
 2957SOL    HW2 9007   3.130   4.745   1.996  0.2358  1.1896  2.0345
 2958SOL     OW 9008   1.671   3.853   0.662 -0.1229  0.4192 -0.6715
 2958SOL    HW1 9009   1.704   3.833   0.574 -1.5727  2.0097 -1.6315
 2958SOL    HW2 9010   1.576   3.862   0.650 -0.0738  3.2692  0.4992
 2959SOL     OW 9011   1.493   4.247   0.860  0.0212 -0.9608 -0.0971
 2959SOL    HW1 9012   1.453   4.333   0.869  1.5946 -0.2593  0.5233
 2959SOL    HW2 9013   1.587   4.264   0.858  0.4960 -2.8211  2.1712
 2960SOL     OW 9014   4.309   3.739   2.697  0.0832  0.0125 -0.2560
 2960SOL    HW1 9015   4.249   3.679   2.653 -1.1908  0.5452  0.6798
 2960SOL    HW2 9016   4.310   3.817   2.642 -2.8996  1.3902  1.3612
 2961SOL     OW 9017   1.207   4.610   3.000 -0.4464 -0.0253  0.2011
 2961SOL    HW1 9018   1.233   4.647   3.085  0.9407  0.9171 -0.5960
 2961SOL    HW2 9019   1.126   4.656   2.978  0.5706  1.6403 -0.1725
 2962SOL     OW 9020   2.301   4.006   2.001  0.6958  0.4536  0.1555
 2962SOL    HW1 9021   2.274   3.964   2.082 -0.9361  0.5231 -0.3215
 2962SOL    HW2 9022   2.304   3.936   1.937  0.7220  0.6060 -0.0117
 2963SOL     OW 9023   1.210   0.562   0.659 -0.1970 -0.0433  0.1562
 2963SOL    HW1 9024   1.234   0.650   0.630  0.7913 -0.3794 -0.0655
 2963SOL    HW2 9025   1.139   0.576   0.722 -1.0172  0.8275 -0.9032
 2964SOL     OW 9026   2.209   0.303   2.036  0.3138  0.0528  0.1709
 2964SOL    HW1 9027   2.255   0.365   2.093  0.7872 -0.5995  0.5126
 2964SOL    HW2 9028   2.198   0.350   1.954  1.4249  0.3032  0.1505
 2965SOL     OW 9029   0.598   4.664   1.491  0.6677 -0.2498 -0.3153
 2965SOL    HW1 9030   0.546   4.686   1.568  0.2937 -1.4490 -0.2107
 2965SOL    HW2 9031   0.681   4.631   1.526  1.2400  0.9381 -0.4734
 2966SOL     OW 9032   0.474   2.292   3.778  0.3450 -0.5915  0.0856
 2966SOL    HW1 9033   0.508   2.268   3.691 -0.8212  0.8046 -0.7957
 2966SOL    HW2 9034   0.543   2.347   3.815  1.2387 -1.8909  0.4597
 2967SOL     OW 9035   3.084   0.109   0.993 -0.3648 -0.4099 -0.1436
 2967SOL    HW1 9036   3.097   0.014   0.985  0.8495 -0.5599  2.3969
 2967SOL    HW2 9037   3.036   0.119   1.075  0.3658  1.2079  0.1290
 2968SOL     OW 9038   2.906   5.034   3.144 -0.2008 -0.0837  0.0798
 2968SOL    HW1 9039   2.944   4.963   3.196  0.3180  0.3610  0.3199
 2968SOL    HW2 9040   2.861   4.990   3.072 -0.0100 -0.6613  0.3080
 2969SOL     OW 9041   4.743   1.753   2.437 -0.4563  0.5514  0.2993
 2969SOL    HW1 9042   4.791   1.766   2.519 -1.9303 -0.8645  1.4798
 2969SOL    HW2 9043   4.687   1.677   2.455 -1.1270  0.4629 -1.9073
 2970SOL     OW 9044   1.085   1.425   0.996 -0.2662  0.2498  0.0300
 2970SOL    HW1 9045   1.027   1.501   0.998  2.0197  2.1101  1.7872
 2970SOL    HW2 9046   1.032   1.353   1.032 -1.3074  2.0478  2.3522
 2971SOL     OW 9047   3.698   2.974   4.148  0.5738 -0.7073  0.0015
 2971SOL    HW1 9048   3.765   2.909   4.171  1.1066  0.3162  1.5446
 2971SOL    HW2 9049   3.683   3.022   4.230 -1.1011 -0.0457 -0.6528
 2972SOL     OW 9050   1.506   2.622   4.708 -0.3507  0.5858  0.1074
 2972SOL    HW1 9051   1.600   2.632   4.721 -0.4921  1.1305  0.8148
 2972SOL    HW2 9052   1.497   2.582   4.622  0.6120 -1.7543  1.0247
 2973SOL     OW 9053   0.395   1.664   0.323 -0.3689 -0.2430  0.4346
 2973SOL    HW1 9054   0.450   1.726   0.275  0.4358  1.1132  2.8989
 2973SOL    HW2 9055   0.338   1.626   0.257  0.0322  2.1376 -1.4186
 2974SOL     OW 9056   2.135   4.200   2.225 -0.1599  0.6097  0.0731
 2974SOL    HW1 9057   2.227   4.190   2.202 -0.2017 -0.3360  0.2759
 2974SOL    HW2 9058   2.136   4.243   2.311  0.0645  1.3099 -0.2738
 2975SOL     OW 9059   2.536   2.504   3.980  0.2191  0.1624  0.3844
 2975SOL    HW1 9060   2.505   2.592   4.000  0.8844  0.3713  0.5177
 2975SOL    HW2 9061   2.632   2.510   3.987  0.3502 -0.2421 -0.9173
 2976SOL     OW 9062   3.322   2.159   3.636  0.0957 -0.1183 -0.3485
 2976SOL    HW1 9063   3.368   2.207   3.567  0.6201  0.5068  0.4287
 2976SOL    HW2 9064   3.390   2.128   3.694 -0.3350 -0.8016 -0.1946
 2977SOL     OW 9065   1.785   0.166   1.293  0.2374 -0.7041  0.2669
 2977SOL    HW1 9066   1.765   0.148   1.201  0.8983 -3.6672  0.6106
 2977SOL    HW2 9067   1.712   0.221   1.322  0.7213  1.5585 -2.2942
 2978SOL     OW 9068   0.775   2.836   3.964  0.1990 -0.2033  0.3500
 2978SOL    HW1 9069   0.843   2.772   3.942  0.1370 -0.1151 -0.1215
 2978SOL    HW2 9070   0.701   2.783   3.994  0.3709 -0.3148  0.5784
 2979SOL     OW 9071   2.494   3.992   0.666 -0.0718 -0.2525 -0.5658
 2979SOL    HW1 9072   2.429   3.980   0.597 -0.0948  2.0789 -1.0182
 2979SOL    HW2 9073   2.515   3.903   0.695 -0.7802 -1.2513 -2.8979
 2980SOL     OW 9074   4.879   0.544   0.988 -0.1372  0.0730 -0.2542
 2980SOL    HW1 9075   4.817   0.616   0.999  1.1239  0.9525  1.7071
 2980SOL    HW2 9076   4.937   0.551   1.064  1.1903 -1.8770 -1.0138
 2981SOL     OW 9077   2.188   4.975   1.302  0.6621 -0.8098 -0.1793
 2981SOL    HW1 9078   2.276   4.955   1.270  0.5196 -0.1933 -0.9748
 2981SOL    HW2 9079   2.204   5.028   1.381  1.0013 -0.5371 -0.4274
 2982SOL     OW 9080   1.441   0.064   2.201  0.0302 -0.5752  0.4271
 2982SOL    HW1 9081   1.500   0.055   2.276 -0.6406 -0.9301  0.9214
 2982SOL    HW2 9082   1.398  -0.021   2.194 -0.5237 -0.2765  0.1566
 2983SOL     OW 9083   0.993   4.452   0.085 -0.7806  0.2946 -0.1769
 2983SOL    HW1 9084   1.055   4.515   0.120  0.9201 -0.8279 -1.0511
 2983SOL    HW2 9085   1.024   4.367   0.116  0.0048 -0.6165 -3.1084
 2984SOL     OW 9086   4.757   1.528   3.085  0.1290  0.2593  0.6550
 2984SOL    HW1 9087   4.796   1.522   2.997 -0.5682 -0.8958  0.4105
 2984SOL    HW2 9088   4.682   1.586   3.074  1.2508  1.8647  0.9692
 2985SOL     OW 9089   3.325   4.751   2.048 -0.2108  0.4279  0.8349
 2985SOL    HW1 9090   3.306   4.672   2.099  1.9896 -0.8406 -0.1918
 2985SOL    HW2 9091   3.403   4.788   2.089 -0.8403  1.7664  0.8964
 2986SOL     OW 9092   2.273   3.712   2.965 -0.6061 -0.5358  0.7392
 2986SOL    HW1 9093   2.328   3.650   2.917 -1.6907 -1.8123  1.0902
 2986SOL    HW2 9094   2.300   3.798   2.933  0.2823 -1.2356 -0.4628
 2987SOL     OW 9095   2.242   3.530   1.422  0.0104  0.0644  0.2886
 2987SOL    HW1 9096   2.201   3.589   1.359  0.8910  0.1355 -0.2256
 2987SOL    HW2 9097   2.246   3.581   1.503  0.4669  0.6046 -0.0676
 2988SOL     OW 9098   2.350   4.761   3.783  0.4661 -0.4569  0.1145
 2988SOL    HW1 9099   2.366   4.845   3.826 -1.5000  0.2691 -0.4890
 2988SOL    HW2 9100   2.388   4.696   3.843 -0.0947  0.6783  1.7794
 2989SOL     OW 9101   1.819   3.647   3.541 -0.1885 -0.3930 -0.1218
 2989SOL    HW1 9102   1.731   3.667   3.510  0.3936  1.6930 -0.6428
 2989SOL    HW2 9103   1.807   3.607   3.627 -1.6389 -0.1976 -0.2137
 2990SOL     OW 9104   5.029   1.086   3.819  0.2076 -0.3534 -0.2863
 2990SOL    HW1 9105   4.974   1.023   3.866  0.6498 -1.9522 -1.7961
 2990SOL    HW2 9106   4.969   1.129   3.758 -0.1230  0.8651  0.8385
 2991SOL     OW 9107   4.073   4.209   1.197  0.0544  0.1868  0.5675
 2991SOL    HW1 9108   4.091   4.304   1.198 -1.2970  0.4908 -0.5652
 2991SOL    HW2 9109   4.012   4.196   1.269  0.3002  0.1513  0.7727
 2992SOL     OW 9110   3.387   2.922   3.186 -0.1338 -0.6319  0.9915
 2992SOL    HW1 9111   3.322   2.970   3.237  0.1196  1.0758 -0.1773
 2992SOL    HW2 9112   3.456   2.901   3.248  1.0378  2.9811  1.1651
 2993SOL     OW 9113   4.231   2.585   3.596 -0.2172  0.2816  0.2898
 2993SOL    HW1 9114   4.272   2.654   3.546 -1.6392  0.5619 -0.5318
 2993SOL    HW2 9115   4.260   2.504   3.554 -2.0576  0.5242 -1.6145
 2994SOL     OW 9116   0.324   4.520   1.773 -0.0833  0.5984  0.4034
 2994SOL    HW1 9117   0.379   4.445   1.795 -0.4210 -0.0163 -0.7548
 2994SOL    HW2 9118   0.310   4.565   1.856  0.7311 -0.2050  0.9947
 2995SOL     OW 9119   3.453   3.292   2.451  0.0778  0.1684  0.7591
 2995SOL    HW1 9120   3.424   3.379   2.479 -0.6651  0.0349  0.4453
 2995SOL    HW2 9121   3.380   3.234   2.474 -0.0525 -0.1338 -0.3400
 2996SOL     OW 9122   2.803   0.989   1.859  0.2336  0.2050  0.0341
 2996SOL    HW1 9123   2.817   1.033   1.943  0.5019 -1.0995  0.7054
 2996SOL    HW2 9124   2.710   1.001   1.841  0.1089  0.2481  0.6750
 2997SOL     OW 9125   4.710   0.908   1.799  0.3451  0.0949 -1.0653
 2997SOL    HW1 9126   4.776   0.976   1.811  0.8990 -0.6716  0.3926
 2997SOL    HW2 9127   4.655   0.914   1.877 -0.8972  0.2472 -1.9272
 2998SOL     OW 9128   4.509   2.518   3.350  0.3084  0.1366  0.0369
 2998SOL    HW1 9129   4.581   2.530   3.289 -1.3421  1.4607 -1.7910
 2998SOL    HW2 9130   4.497   2.604   3.390  0.5113 -0.3883  1.2576
 2999SOL     OW 9131   4.842   4.467   1.302 -0.4671  0.0012  0.3120
 2999SOL    HW1 9132   4.774   4.513   1.253  0.5407  0.6818 -0.4946
 2999SOL    HW2 9133   4.849   4.381   1.260  1.1676  0.9744 -1.5507
 3000SOL     OW 9134   3.391   4.118   3.190  0.1709  0.2665 -0.3700
 3000SOL    HW1 9135   3.406   4.053   3.121 -2.1174 -1.1326  0.3351
 3000SOL    HW2 9136   3.374   4.065   3.268  2.7523  1.7917  1.3774
 3001SOL     OW 9137   1.149   3.862   3.968  0.3098  0.3120 -0.6677
 3001SOL    HW1 9138   1.160   3.935   4.029  1.7762 -0.0687 -0.4390
 3001SOL    HW2 9139   1.084   3.805   4.009  1.7869 -0.2944  0.9223
 3002SOL     OW 9140   4.847   2.399   4.247  0.0190  0.1836 -0.7034
 3002SOL    HW1 9141   4.865   2.419   4.156 -0.3897  1.8388 -0.4491
 3002SOL    HW2 9142   4.775   2.335   4.244  1.6928 -1.7823 -1.5515
 3003SOL     OW 9143   2.156   1.034   1.408 -0.0579  0.5298  0.5511
 3003SOL    HW1 9144   2.228   1.072   1.358 -0.5172  0.9736  0.2123
 3003SOL    HW2 9145   2.137   1.098   1.477 -0.3635  0.5919  0.4135
 3004SOL     OW 9146   0.063   0.089   2.447  0.2436  0.7128 -0.3904
 3004SOL    HW1 9147   0.126   0.104   2.517 -0.9903  1.5808  0.5912
 3004SOL    HW2 9148  -0.019   0.070   2.493 -0.7378  1.9280 -1.5784
 3005SOL     OW 9149   1.413   0.452   4.007 -0.2420 -0.3964 -0.0440
 3005SOL    HW1 9150   1.382   0.542   4.015 -0.3578 -0.2110 -2.0054
 3005SOL    HW2 9151   1.348   0.409   3.952  0.7258 -1.1867 -0.6107
 3006SOL     OW 9152   4.817   2.696   4.018  0.3845  0.0765  0.4200
 3006SOL    HW1 9153   4.773   2.731   3.941  0.2730 -0.5865  0.1788
 3006SOL    HW2 9154   4.825   2.602   4.001  0.3362 -0.0792  1.2249
 3007SOL     OW 9155   2.205   1.368   2.981 -0.1968 -0.2273  0.3438
 3007SOL    HW1 9156   2.205   1.278   2.949 -1.1979 -0.0527 -0.2073
 3007SOL    HW2 9157   2.288   1.405   2.952 -0.6924 -0.3352 -1.3453
 3008SOL     OW 9158   3.024   0.990   0.091 -0.0139 -0.3644 -0.1909
 3008SOL    HW1 9159   2.956   1.020   0.151  0.4275 -1.6409  1.0048
 3008SOL    HW2 9160   3.082   1.065   0.081 -1.4112  0.6611 -1.0292
 3009SOL     OW 9161   2.096   4.489   0.747  0.2831  0.5601 -0.9036
 3009SOL    HW1 9162   2.128   4.439   0.822 -0.0484 -1.9401 -2.3061
 3009SOL    HW2 9163   2.173   4.538   0.717  0.6666  0.8461  0.4677
 3010SOL     OW 9164   3.201   3.654   0.251  0.2564 -0.0731  0.0947
 3010SOL    HW1 9165   3.119   3.700   0.232  1.1291  1.5648  0.1220
 3010SOL    HW2 9166   3.191   3.623   0.341  0.4098  1.8472  0.8073
 3011SOL     OW 9167   1.707   1.024   4.386 -0.0077 -0.4176  0.1089
 3011SOL    HW1 9168   1.651   1.018   4.309  1.6437  1.4552 -1.3437
 3011SOL    HW2 9169   1.787   0.977   4.361  0.6177  0.3695  0.5648
 3012SOL     OW 9170   0.539   3.111   1.230 -0.2085  0.3867  0.4187
 3012SOL    HW1 9171   0.526   3.202   1.256  2.4380  0.7443  0.7833
 3012SOL    HW2 9172   0.612   3.114   1.168 -1.4572 -1.2859 -1.2636
 3013SOL     OW 9173   0.048   3.494   2.248 -0.5487 -0.1790 -0.1858
 3013SOL    HW1 9174  -0.036   3.488   2.202 -0.3949  1.9115 -0.8657
 3013SOL    HW2 9175   0.113   3.468   2.183 -0.6443 -1.7733  0.3327
 3014SOL     OW 9176   4.831   4.874   3.893 -0.6876 -0.3396  0.4528
 3014SOL    HW1 9177   4.876   4.936   3.836  1.4607 -0.7395  1.6099
 3014SOL    HW2 9178   4.829   4.792   3.844  0.4375 -0.4714  0.6015
 3015SOL     OW 9179   2.307   4.059   4.245 -0.2526 -0.2183 -0.1716
 3015SOL    HW1 9180   2.211   4.056   4.237 -0.2852  0.3861 -0.0530
 3015SOL    HW2 9181   2.333   3.968   4.259 -0.7399 -0.5071 -1.0313
 3016SOL     OW 9182   4.378   0.978   1.819 -0.2941  0.6326 -0.6386
 3016SOL    HW1 9183   4.385   0.982   1.723  0.5484  0.4927 -0.5894
 3016SOL    HW2 9184   4.293   1.018   1.838 -0.1873  1.2583 -1.3988
 3017SOL     OW 9185   0.194   0.078   4.289 -0.3000 -0.4770  0.1427
 3017SOL    HW1 9186   0.157   0.007   4.236 -0.0368 -0.9284  0.5559
 3017SOL    HW2 9187   0.287   0.077   4.269 -0.1816 -0.7196  0.6905
 3018SOL     OW 9188   1.347   1.045   2.807  0.4181  0.0184 -0.0771
 3018SOL    HW1 9189   1.264   1.091   2.821  0.1274 -0.6423  0.4197
 3018SOL    HW2 9190   1.376   1.020   2.895  0.5284 -0.8256 -0.3480
 3019SOL     OW 9191   4.380   1.674   3.496  0.0744  0.0387  0.7135
 3019SOL    HW1 9192   4.361   1.764   3.521  2.5575  0.3878  1.6142
 3019SOL    HW2 9193   4.471   1.660   3.523  0.2622 -2.2467 -0.7931
 3020SOL     OW 9194   0.822   1.630   4.712 -0.0236  0.0947 -0.5335
 3020SOL    HW1 9195   0.892   1.687   4.680 -0.4861  1.7266  1.1661
 3020SOL    HW2 9196   0.868   1.555   4.750  0.7166  0.3412 -0.9270
 3021SOL     OW 9197   4.742   3.863   3.476 -0.4125 -0.0779  0.2473
 3021SOL    HW1 9198   4.834   3.838   3.485  0.3163  1.0970 -2.6775
 3021SOL    HW2 9199   4.696   3.812   3.543  2.1644 -1.8597  0.7920
 3022SOL     OW 9200   2.826   2.249   4.338 -0.0758 -0.1466 -0.3083
 3022SOL    HW1 9201   2.736   2.278   4.326 -0.1338 -0.4933 -0.7593
 3022SOL    HW2 9202   2.848   2.275   4.428 -1.8000 -3.0270  1.1258
 3023SOL     OW 9203   2.475   4.904   2.983 -0.1856 -0.0260 -0.0111
 3023SOL    HW1 9204   2.426   4.846   3.042 -0.0744  0.7567  0.8753
 3023SOL    HW2 9205   2.446   4.879   2.896 -0.6569 -0.9444  0.3924
 3024SOL     OW 9206   0.659   1.038   0.598 -0.2561  0.1408 -0.1707
 3024SOL    HW1 9207   0.698   0.975   0.537 -1.2125 -0.9603  0.3293
 3024SOL    HW2 9208   0.656   0.992   0.682  0.7389  1.5249  0.6592
 3025SOL     OW 9209   0.173   3.633   3.144  0.1747 -0.6066 -0.1631
 3025SOL    HW1 9210   0.156   3.586   3.063  1.3877 -0.1674 -0.7051
 3025SOL    HW2 9211   0.205   3.719   3.116 -2.3993  0.7796  0.7959
 3026SOL     OW 9212   3.747   2.343   2.301  0.5094  0.5680 -0.2987
 3026SOL    HW1 9213   3.826   2.325   2.352 -0.2486  0.0832  0.7711
 3026SOL    HW2 9214   3.734   2.265   2.248  0.5174  0.4710 -0.1579
 3027SOL     OW 9215   1.943   1.219   0.730 -0.2488 -0.0262  0.1686
 3027SOL    HW1 9216   1.875   1.152   0.731  1.7238 -2.1625  1.7644
 3027SOL    HW2 9217   1.965   1.230   0.638 -1.4071 -0.7189 -0.2048
 3028SOL     OW 9218   0.727   4.460   4.137 -0.1701 -0.2564  0.1742
 3028SOL    HW1 9219   0.752   4.538   4.185 -1.1434  0.2765 -0.1536
 3028SOL    HW2 9220   0.662   4.417   4.193 -1.3079  0.3646 -0.6099
 3029SOL     OW 9221   3.172   2.400   4.346  0.2097 -0.0127 -0.2539
 3029SOL    HW1 9222   3.173   2.481   4.295 -2.1484 -0.4338 -1.1135
 3029SOL    HW2 9223   3.264   2.377   4.356  0.8532  0.9807 -2.9139
 3030SOL     OW 9224   1.977   1.479   2.872 -0.1457  0.5210 -0.0311
 3030SOL    HW1 9225   1.929   1.396   2.877  0.8568 -0.2353 -2.0075
 3030SOL    HW2 9226   2.067   1.456   2.894 -0.5693  2.0014  4.0221
 3031SOL     OW 9227   3.235   0.740   3.166  0.1996 -0.0920 -0.5820
 3031SOL    HW1 9228   3.203   0.778   3.084 -2.4527 -1.2185 -0.2010
 3031SOL    HW2 9229   3.175   0.774   3.233 -0.2777 -2.3281  0.2178
 3032SOL     OW 9230   1.453   4.613   2.033  0.1348  0.1387 -0.9758
 3032SOL    HW1 9231   1.417   4.660   1.958  1.7918  1.4526 -0.9922
 3032SOL    HW2 9232   1.532   4.571   1.999  1.9094  2.2091  0.3859
 3033SOL     OW 9233   2.887   4.411   2.992 -0.7167 -0.1647  0.2122
 3033SOL    HW1 9234   2.878   4.498   3.030 -3.0112 -1.3731  2.8060
 3033SOL    HW2 9235   2.895   4.352   3.067 -2.7677 -2.4943 -1.2296
 3034SOL     OW 9236   0.396   1.114   1.311  0.6347 -0.2020 -0.0630
 3034SOL    HW1 9237   0.421   1.070   1.392 -0.3821 -0.5505  0.0657
 3034SOL    HW2 9238   0.392   1.207   1.335  1.1398 -0.2106  0.0737
 3035SOL     OW 9239   3.173   0.187   0.461  0.0858 -0.6402 -0.9023
 3035SOL    HW1 9240   3.213   0.114   0.508 -0.3698 -0.4929 -0.2794
 3035SOL    HW2 9241   3.223   0.264   0.490 -0.0087 -0.5859 -0.8837
 3036SOL     OW 9242   4.073   2.146   0.769  0.1821  0.1391  0.6517
 3036SOL    HW1 9243   4.093   2.131   0.677 -0.3275 -1.7345  0.8081
 3036SOL    HW2 9244   4.102   2.236   0.786  1.7601 -0.0296 -0.9134
 3037SOL     OW 9245   3.316   3.767   0.513  0.4213 -0.0835 -1.2935
 3037SOL    HW1 9246   3.233   3.812   0.528  1.3140  1.2154  0.0693
 3037SOL    HW2 9247   3.379   3.838   0.499  1.3209 -1.0380 -2.1910
 3038SOL     OW 9248   4.999   1.384   3.347 -0.3167  0.2902 -0.5510
 3038SOL    HW1 9249   5.028   1.412   3.434 -0.6133  0.7264 -0.5902
 3038SOL    HW2 9250   4.904   1.396   3.349 -0.3660 -0.0658 -0.8041
 3039SOL     OW 9251   1.791   0.665   0.765  0.1114  0.1386 -0.2071
 3039SOL    HW1 9252   1.709   0.714   0.750  0.1593 -0.1750 -1.7095
 3039SOL    HW2 9253   1.843   0.682   0.686  1.7110  0.6995  0.9214
 3040SOL     OW 9254   3.922   4.559   4.260 -0.5703 -0.7777 -0.1638
 3040SOL    HW1 9255   3.934   4.599   4.347 -0.8860  1.3501 -1.0423
 3040SOL    HW2 9256   3.867   4.482   4.277 -2.4905  0.7961  1.3058
 3041SOL     OW 9257   0.207   2.916   1.629 -0.0593 -0.2220  0.0478
 3041SOL    HW1 9258   0.203   2.950   1.540 -1.2195 -1.0274 -0.2341
 3041SOL    HW2 9259   0.208   2.994   1.685 -1.6273  0.3002 -0.6080
 3042SOL     OW 9260   4.163   0.412   1.298 -0.3647  0.7842  0.0244
 3042SOL    HW1 9261   4.091   0.474   1.310 -1.4624 -0.0448 -1.8987
 3042SOL    HW2 9262   4.130   0.331   1.336  0.0834  0.7218  0.2855
 3043SOL     OW 9263   3.548   2.374   1.296 -0.0375 -0.3044 -0.4966
 3043SOL    HW1 9264   3.464   2.405   1.260 -0.9529 -1.4504  0.5575
 3043SOL    HW2 9265   3.573   2.441   1.359 -0.2158  0.0112 -0.7603
 3044SOL     OW 9266   2.499   2.240   2.650 -0.7116 -0.1091 -0.0504
 3044SOL    HW1 9267   2.424   2.193   2.614 -1.2982  1.9953 -1.8105
 3044SOL    HW2 9268   2.532   2.292   2.577  3.2736 -1.7909  0.3067
 3045SOL     OW 9269   1.013   0.528   4.695 -0.3497  0.1207  0.2704
 3045SOL    HW1 9270   1.013   0.481   4.778  1.8604  1.5945  1.1836
 3045SOL    HW2 9271   1.068   0.475   4.637 -0.0560  0.2173  0.4592
 3046SOL     OW 9272   0.696   1.259   1.169 -0.2400 -0.4499  0.1654
 3046SOL    HW1 9273   0.624   1.206   1.133  0.4015 -2.1505  1.2871
 3046SOL    HW2 9274   0.683   1.256   1.264  1.3012 -0.7783  0.3912
 3047SOL     OW 9275   4.550   2.244   1.085  0.1035  0.0447 -0.4298
 3047SOL    HW1 9276   4.641   2.216   1.087  0.1831  0.3113 -0.1626
 3047SOL    HW2 9277   4.520   2.222   0.997  0.2199 -0.6812 -0.2903
 3048SOL     OW 9278   3.365   1.960   1.690 -0.1117  0.5263  0.2745
 3048SOL    HW1 9279   3.299   2.023   1.720 -0.0877  1.9327 -2.3610
 3048SOL    HW2 9280   3.352   1.884   1.746 -1.6236  2.0603  2.1325
 3049SOL     OW 9281   2.236   1.494   1.432 -0.1953 -0.5652 -0.0323
 3049SOL    HW1 9282   2.176   1.470   1.502 -0.1263 -1.0160 -0.1263
 3049SOL    HW2 9283   2.320   1.456   1.458  0.8128  2.4444  1.5464
 3050SOL     OW 9284   1.119   4.024   3.469 -0.1064  0.1363  0.0303
 3050SOL    HW1 9285   1.030   4.019   3.435  0.2704  0.9393 -1.1484
 3050SOL    HW2 9286   1.145   4.115   3.454  1.8955 -0.7127 -2.2474
 3051SOL     OW 9287   0.617   1.830   0.910 -0.1071  0.4284 -0.3202
 3051SOL    HW1 9288   0.657   1.904   0.955  2.8925 -0.5639 -1.1404
 3051SOL    HW2 9289   0.659   1.753   0.949 -1.2444 -0.7133 -1.2708
 3052SOL     OW 9290   1.280   1.018   1.466 -0.5215  0.0674 -0.2408
 3052SOL    HW1 9291   1.239   1.053   1.387 -1.0786  1.4722  0.6360
 3052SOL    HW2 9292   1.207   0.993   1.522 -0.1370 -0.2932  0.1144
 3053SOL     OW 9293   3.447   0.947   3.743 -0.5806  0.4962  0.7944
 3053SOL    HW1 9294   3.406   0.864   3.770 -1.4092  0.7787  0.4424
 3053SOL    HW2 9295   3.516   0.961   3.807  1.5059 -1.9034 -0.6994
 3054SOL     OW 9296   3.733   4.857   3.744 -0.4518 -0.2749  0.5333
 3054SOL    HW1 9297   3.789   4.861   3.822  0.7591  0.6936 -0.3515
 3054SOL    HW2 9298   3.793   4.864   3.670 -1.5839 -1.0500 -0.5146
 3055SOL     OW 9299   0.495   2.737   4.673  0.2266 -0.6790  0.4896
 3055SOL    HW1 9300   0.555   2.746   4.747  0.7700 -0.2010 -0.0045
 3055SOL    HW2 9301   0.463   2.825   4.656  1.2555 -0.5158 -0.7868
 3056SOL     OW 9302   3.809   1.037   1.019 -0.2680  0.1588  0.6054
 3056SOL    HW1 9303   3.807   0.983   0.939 -0.0637  2.7183 -1.2509
 3056SOL    HW2 9304   3.875   1.103   1.002 -1.5021  1.8911  2.1552
 3057SOL     OW 9305   3.387   2.640   4.300 -0.5514 -0.0222 -0.0453
 3057SOL    HW1 9306   3.445   2.583   4.250 -0.5042 -0.3158  0.3508
 3057SOL    HW2 9307   3.364   2.709   4.238 -0.9829 -0.7171 -0.6750
 3058SOL     OW 9308   3.851   1.813   3.731  0.0960 -0.8133  0.3956
 3058SOL    HW1 9309   3.907   1.768   3.794  2.2507 -0.9948 -1.4916
 3058SOL    HW2 9310   3.790   1.863   3.785  3.7066  1.5330  2.8496
 3059SOL     OW 9311   2.788   4.872   2.955  0.1059  0.0937 -0.0686
 3059SOL    HW1 9312   2.732   4.947   2.933 -2.0383 -1.0446  1.1664
 3059SOL    HW2 9313   2.805   4.829   2.872  0.1526  1.1400 -0.6147
 3060SOL     OW 9314   2.042   2.996   2.243  0.1542  0.3780 -0.0368
 3060SOL    HW1 9315   2.025   2.981   2.336 -1.8268 -0.1988 -0.4395
 3060SOL    HW2 9316   2.095   3.076   2.241 -0.4752  0.8814  1.5552
 3061SOL     OW 9317   3.525   1.382   3.938 -0.2072  0.0904  0.3933
 3061SOL    HW1 9318   3.485   1.299   3.914 -0.0692  0.4934 -1.4012
 3061SOL    HW2 9319   3.564   1.366   4.024 -0.4494 -1.5966  0.2247
 3062SOL     OW 9320   0.047   1.181   4.627  0.1471  1.2474  0.0237
 3062SOL    HW1 9321  -0.035   1.134   4.616 -0.1367  1.9944 -1.1419
 3062SOL    HW2 9322   0.027   1.250   4.691 -0.6205  2.5105 -1.5301
 3063SOL     OW 9323   1.345   0.724   4.051  0.3503 -0.4703 -0.5145
 3063SOL    HW1 9324   1.338   0.810   4.091 -0.5322 -0.0468 -1.5501
 3063SOL    HW2 9325   1.420   0.731   3.992  0.0144 -0.2645 -0.9242
 3064SOL     OW 9326   1.488   3.451   0.124  0.8692  0.1173 -0.2210
 3064SOL    HW1 9327   1.570   3.403   0.138  0.6686  0.0889  0.9271
 3064SOL    HW2 9328   1.427   3.385   0.092  1.4563  0.2671 -1.7411
 3065SOL     OW 9329   2.362   4.848   1.705 -0.1406 -0.1106 -0.0004
 3065SOL    HW1 9330   2.283   4.807   1.668  1.7820 -2.4831 -1.8048
 3065SOL    HW2 9331   2.392   4.788   1.772  0.7939  0.1476 -0.1706
 3066SOL     OW 9332   5.025   3.612   1.620 -0.0868 -0.0777  0.5794
 3066SOL    HW1 9333   4.974   3.682   1.660  3.3179  3.1210 -0.2140
 3066SOL    HW2 9334   4.974   3.586   1.543 -0.4601  3.2651 -0.4379
 3067SOL     OW 9335   1.759   0.202   3.844  0.1520 -0.0771  0.0353
 3067SOL    HW1 9336   1.747   0.139   3.915 -0.1118  1.2249  1.1929
 3067SOL    HW2 9337   1.789   0.281   3.888 -1.6979  1.3064 -1.0496
 3068SOL     OW 9338   2.210   4.584   2.183  0.5237 -0.3244 -0.8484
 3068SOL    HW1 9339   2.129   4.599   2.232  0.8008 -1.0409 -0.1477
 3068SOL    HW2 9340   2.186   4.521   2.115 -0.0686  1.3232 -2.2472
 3069SOL     OW 9341   3.751   0.617   4.747  0.3542  0.0154 -0.1320
 3069SOL    HW1 9342   3.692   0.569   4.805  0.6105 -0.6883 -0.4518
 3069SOL    HW2 9343   3.776   0.695   4.797 -1.4179  0.7095 -0.2677
 3070SOL     OW 9344   1.191   2.478   3.113 -0.0842 -0.4507 -0.0017
 3070SOL    HW1 9345   1.259   2.466   3.179  0.6489 -0.5786 -0.7634
 3070SOL    HW2 9346   1.202   2.404   3.054 -0.7945 -0.3902 -0.2199
 3071SOL     OW 9347   4.818   1.425   3.700 -0.5655  0.3438  0.1781
 3071SOL    HW1 9348   4.909   1.409   3.725 -0.0194  0.9778 -1.2388
 3071SOL    HW2 9349   4.802   1.516   3.724 -0.1523  0.8450 -1.3024
 3072SOL     OW 9350   0.181   3.509   0.252 -0.5918 -0.0391  0.4665
 3072SOL    HW1 9351   0.166   3.603   0.247 -2.3087 -0.3328 -2.2533
 3072SOL    HW2 9352   0.129   3.480   0.327 -2.0823  0.8950 -0.1758
 3073SOL     OW 9353   4.598   2.119   1.734  0.3943 -0.7744 -1.0093
 3073SOL    HW1 9354   4.569   2.078   1.815 -1.1651 -0.8314 -1.5498
 3073SOL    HW2 9355   4.613   2.045   1.674 -0.2467 -0.6837 -1.3014
 3074SOL     OW 9356   4.741   4.581   0.162  0.2397 -0.0073 -0.0006
 3074SOL    HW1 9357   4.833   4.591   0.185 -0.3667  1.6095  1.9757
 3074SOL    HW2 9358   4.700   4.548   0.241 -1.3973  2.6325  0.3761
 3075SOL     OW 9359   4.198   2.766   4.772 -0.2223 -0.2962  0.8158
 3075SOL    HW1 9360   4.139   2.692   4.758  1.8839 -1.7470 -1.0370
 3075SOL    HW2 9361   4.145   2.843   4.754 -2.5776 -1.2377  3.0746
 3076SOL     OW 9362   4.314   1.881   4.434  0.3846 -0.2324  0.1589
 3076SOL    HW1 9363   4.343   1.966   4.468  0.8761 -0.1322 -0.4741
 3076SOL    HW2 9364   4.394   1.842   4.398  0.2939 -1.2568  1.0199
 3077SOL     OW 9365   0.717   4.919   2.259 -0.6251 -0.1700  0.0396
 3077SOL    HW1 9366   0.716   5.000   2.311 -1.6525  0.3626 -0.7761
 3077SOL    HW2 9367   0.781   4.936   2.190 -0.1506 -0.4155  0.4172
 3078SOL     OW 9368   1.979   4.779   1.266  0.3041  0.1923  0.6479
 3078SOL    HW1 9369   2.030   4.850   1.306 -2.4623  2.8538 -0.1214
 3078SOL    HW2 9370   1.984   4.795   1.172 -0.6272 -0.4435  0.4717
 3079SOL     OW 9371   1.759   3.447   1.691  0.5815 -0.1117 -0.4255
 3079SOL    HW1 9372   1.702   3.371   1.677  0.9350 -0.8777  1.7613
 3079SOL    HW2 9373   1.845   3.419   1.657  0.1247  0.3475 -2.0312
 3080SOL     OW 9374   3.394   3.988   2.566 -0.2067  0.0011  0.0867
 3080SOL    HW1 9375   3.396   3.951   2.654  1.0956 -3.0533 -1.0757
 3080SOL    HW2 9376   3.406   4.082   2.579 -2.3430  0.0124  3.2289
 3081SOL     OW 9377   4.301   2.965   2.376 -0.2126 -0.6748  0.0118
 3081SOL    HW1 9378   4.283   2.890   2.319 -1.6758 -1.8035  1.8597
 3081SOL    HW2 9379   4.336   2.927   2.456 -1.6220  0.5306  1.2623
 3082SOL     OW 9380   1.075   2.064   3.134 -0.3000  0.0061 -0.1064
 3082SOL    HW1 9381   1.167   2.059   3.109 -0.6227 -0.8546 -1.2427
 3082SOL    HW2 9382   1.075   2.105   3.221  1.0052  1.6897 -0.8462
 3083SOL     OW 9383   2.229   2.064   1.452  0.3776 -0.2238 -0.5449
 3083SOL    HW1 9384   2.134   2.060   1.454  0.2999  1.1205 -0.4101
 3083SOL    HW2 9385   2.257   1.992   1.508 -0.6311  0.7865  1.3535
 3084SOL     OW 9386   1.375   2.267   0.391  0.2222  0.0537  0.3286
 3084SOL    HW1 9387   1.312   2.299   0.326 -0.2817  0.1749  0.8637
 3084SOL    HW2 9388   1.380   2.338   0.456  2.9532  1.2423 -1.0259
 3085SOL     OW 9389   4.852   0.357   1.692  0.5507  0.9488 -0.6402
 3085SOL    HW1 9390   4.803   0.362   1.610  2.1879 -1.6811 -1.8975
 3085SOL    HW2 9391   4.943   0.371   1.667  1.3786 -2.0724  0.2331
 3086SOL     OW 9392   3.107   1.314   0.078  0.2059  0.1234 -0.0490
 3086SOL    HW1 9393   3.077   1.393   0.034  2.2772  2.5481  2.4977
 3086SOL    HW2 9394   3.201   1.309   0.057 -0.2706 -3.2925 -2.2534
 3087SOL     OW 9395   1.594   2.568   0.254 -0.0492  0.7746  0.2926
 3087SOL    HW1 9396   1.632   2.589   0.169 -0.6298 -0.3417 -0.2645
 3087SOL    HW2 9397   1.661   2.516   0.299 -1.2862 -2.4594 -1.2532
 3088SOL     OW 9398   2.634   4.938   1.844  0.5396  0.2233  0.1489
 3088SOL    HW1 9399   2.720   4.904   1.869  1.0499  0.1441 -1.6383
 3088SOL    HW2 9400   2.578   4.860   1.838  0.9450  0.0018 -0.9580
 3089SOL     OW 9401   4.828   0.616   4.328  0.6942  0.0802 -0.2799
 3089SOL    HW1 9402   4.742   0.579   4.348  1.5999 -1.6191  0.5965
 3089SOL    HW2 9403   4.845   0.588   4.238  0.6516 -0.2071 -0.1992
 3090SOL     OW 9404   0.433   2.480   0.239 -0.1454  0.5048 -0.1127
 3090SOL    HW1 9405   0.435   2.457   0.146 -0.6421  2.7673 -0.7504
 3090SOL    HW2 9406   0.424   2.397   0.285  0.8805 -0.7433 -2.0390
 3091SOL     OW 9407   3.418   1.564   2.431  0.1127 -0.5359 -0.2814
 3091SOL    HW1 9408   3.333   1.607   2.419  1.1029  1.1227 -1.8912
 3091SOL    HW2 9409   3.398   1.470   2.432 -1.5998 -0.2607 -2.1384
 3092SOL     OW 9410   4.308   3.093   4.878  0.5182  0.2063 -0.6391
 3092SOL    HW1 9411   4.371   3.033   4.839  2.3377  1.8583 -0.3870
 3092SOL    HW2 9412   4.328   3.093   4.971  0.9477  1.5916 -0.7027
 3093SOL     OW 9413   2.677   3.295   2.312 -0.3494 -0.2077  0.4760
 3093SOL    HW1 9414   2.715   3.274   2.398 -1.0458 -1.7289  0.4483
 3093SOL    HW2 9415   2.735   3.253   2.249 -1.1699 -1.1790  0.3505
 3094SOL     OW 9416   3.233   1.695   4.296 -0.1399 -0.2218 -0.2980
 3094SOL    HW1 9417   3.143   1.706   4.327  0.7241 -0.8647  2.7488
 3094SOL    HW2 9418   3.224   1.655   4.209 -2.7629 -0.7118  0.1240
 3095SOL     OW 9419   2.829   3.079   3.946  0.1285  0.5216  0.0563
 3095SOL    HW1 9420   2.833   3.122   4.032 -0.3397  1.2803 -0.2938
 3095SOL    HW2 9421   2.920   3.059   3.926  0.1933 -0.1882  0.9893
 3096SOL     OW 9422   4.077   2.996   2.694 -0.5357 -0.1098 -0.2829
 3096SOL    HW1 9423   4.036   3.082   2.691  1.2206  0.7533 -0.2666
 3096SOL    HW2 9424   4.063   2.966   2.784  2.2067  1.9332  0.9695
 3097SOL     OW 9425   0.764   1.843   0.533 -0.2157 -0.2392 -0.3971
 3097SOL    HW1 9426   0.692   1.843   0.469  0.5737 -0.7341 -1.3067
 3097SOL    HW2 9427   0.749   1.766   0.587 -1.6431  0.9015  0.9274
 3098SOL     OW 9428   3.412   2.287   4.456 -0.6320  0.3361  0.2324
 3098SOL    HW1 9429   3.496   2.332   4.464 -1.2720  1.5757  0.2365
 3098SOL    HW2 9430   3.371   2.296   4.543 -1.8082  1.9469 -0.4363
 3099SOL     OW 9431   1.011   1.937   4.048  0.9481  0.0103  0.3610
 3099SOL    HW1 9432   0.994   2.009   4.108 -1.6364 -2.4042  2.8558
 3099SOL    HW2 9433   0.924   1.904   4.024  1.9889 -2.0472 -0.9140
 3100SOL     OW 9434   1.997   4.655   2.730  0.2675  0.0911 -0.0285
 3100SOL    HW1 9435   2.088   4.630   2.746 -0.0604 -3.3468 -2.3756
 3100SOL    HW2 9436   1.948   4.612   2.799  0.1928 -1.0318 -0.7549
 3101SOL     OW 9437   3.204   1.558   1.720  0.4238  0.1889 -0.7953
 3101SOL    HW1 9438   3.222   1.633   1.776  0.4304 -0.2916 -0.1456
 3101SOL    HW2 9439   3.284   1.506   1.723 -0.4341 -1.1131  0.7738
 3102SOL     OW 9440   0.812   0.373   1.862 -0.0678 -0.4010 -0.3585
 3102SOL    HW1 9441   0.812   0.452   1.809 -0.6094  0.5246  0.9795
 3102SOL    HW2 9442   0.723   0.337   1.852 -0.5473  0.4035  0.7828
 3103SOL     OW 9443   1.377   1.830   3.514  0.0915  0.3547 -0.9997
 3103SOL    HW1 9444   1.465   1.823   3.551  0.1304 -1.4155 -1.3315
 3103SOL    HW2 9445   1.379   1.773   3.437 -1.4239 -0.0023 -0.8133
 3104SOL     OW 9446   3.220   3.832   0.849 -0.9893 -0.6516  0.3059
 3104SOL    HW1 9447   3.133   3.802   0.874 -1.5450  0.7333  0.1340
 3104SOL    HW2 9448   3.210   3.867   0.761 -0.7651  1.4090  1.0378
 3105SOL     OW 9449   0.279   2.582   1.328 -0.2596 -0.0206 -0.4766
 3105SOL    HW1 9450   0.191   2.592   1.365 -0.1257 -1.2404  0.2228
 3105SOL    HW2 9451   0.319   2.668   1.340 -1.1548  0.3886 -0.2832
 3106SOL     OW 9452   4.826   1.139   0.029 -0.5301  0.0382  0.5381
 3106SOL    HW1 9453   4.799   1.193   0.103 -2.4621 -0.4934  0.2929
 3106SOL    HW2 9454   4.869   1.200  -0.031  1.2952  0.4401  2.1320
 3107SOL     OW 9455   4.909   0.764   2.565 -0.2053  0.2937 -0.1517
 3107SOL    HW1 9456   4.877   0.844   2.607 -0.6330  0.9001 -1.5774
 3107SOL    HW2 9457   5.004   0.775   2.561 -0.3458  1.2321 -1.2930
 3108SOL     OW 9458   1.768   0.694   4.868  0.1061 -0.1172 -0.3939
 3108SOL    HW1 9459   1.856   0.675   4.834  1.2242  0.4057  2.0131
 3108SOL    HW2 9460   1.729   0.752   4.803  1.1727 -1.0502 -1.9444
 3109SOL     OW 9461   4.984   2.797   4.422 -0.0175  0.1902  0.2713
 3109SOL    HW1 9462   4.990   2.840   4.508 -0.3209 -0.5483  0.6687
 3109SOL    HW2 9463   4.957   2.708   4.442 -0.8401  0.2233 -0.6483
 3110SOL     OW 9464   0.191   4.075   3.562 -0.3198 -0.3017 -0.2611
 3110SOL    HW1 9465   0.115   4.089   3.619  0.3802 -1.9958  1.2003
 3110SOL    HW2 9466   0.267   4.088   3.619  0.5506  1.4784 -1.7242
 3111SOL     OW 9467   3.474   4.484   1.268 -0.2573 -0.0134 -0.0319
 3111SOL    HW1 9468   3.404   4.422   1.248  0.4835 -0.2247 -2.2402
 3111SOL    HW2 9469   3.501   4.462   1.357 -0.2704 -2.6287 -0.5934
 3112SOL     OW 9470   1.440   0.996   2.114  0.4697  0.3803  0.1805
 3112SOL    HW1 9471   1.370   1.034   2.060  0.8064 -0.0455 -0.5696
 3112SOL    HW2 9472   1.405   0.912   2.143 -0.5299  1.4542  2.3657
 3113SOL     OW 9473   1.444   3.855   2.476  0.2184  0.3193  0.1943
 3113SOL    HW1 9474   1.516   3.917   2.463  1.1310 -0.5185  1.0425
 3113SOL    HW2 9475   1.484   3.781   2.522 -1.1933 -0.1781  0.6841
 3114SOL     OW 9476   3.790   1.486   2.582  0.5046 -0.4840 -0.0195
 3114SOL    HW1 9477   3.733   1.562   2.564  1.3169  0.5644  1.5652
 3114SOL    HW2 9478   3.749   1.444   2.658  1.4985 -0.0532  0.7748
 3115SOL     OW 9479   1.878   2.334   2.044  0.1783 -0.3225  0.0149
 3115SOL    HW1 9480   1.797   2.353   2.091 -0.4517  0.9393 -1.5043
 3115SOL    HW2 9481   1.885   2.403   1.978  1.6362 -1.3416 -0.9717
 3116SOL     OW 9482   3.626   4.121   2.804  0.1734  0.0302  0.5211
 3116SOL    HW1 9483   3.682   4.158   2.873  0.7043  0.7315 -0.2782
 3116SOL    HW2 9484   3.565   4.065   2.852  1.8366 -1.1468  1.3875
 3117SOL     OW 9485   3.063   1.969   4.209  0.1051  0.0599  0.1768
 3117SOL    HW1 9486   3.092   1.983   4.299 -1.3155 -1.0817  0.8426
 3117SOL    HW2 9487   3.052   1.874   4.201 -0.5300  0.2051 -0.9597
 3118SOL     OW 9488   3.638   2.515   4.911  0.2417  0.2086  0.4483
 3118SOL    HW1 9489   3.703   2.578   4.943  0.8016 -0.4147  0.5656
 3118SOL    HW2 9490   3.576   2.506   4.983  1.7497 -1.5404  1.6003
 3119SOL     OW 9491   0.456   0.305   0.427  0.0913 -0.4199 -0.3453
 3119SOL    HW1 9492   0.470   0.304   0.521 -1.9187 -2.0395  0.0029
 3119SOL    HW2 9493   0.469   0.396   0.401 -0.2149  0.2124  1.6322
 3120SOL     OW 9494   3.130   1.542   1.445  0.2045 -0.5077  0.4094
 3120SOL    HW1 9495   3.083   1.549   1.528  0.4329 -2.1103  0.7199
 3120SOL    HW2 9496   3.150   1.448   1.438  2.5793 -0.0219 -0.1361
 3121SOL     OW 9497   1.323   1.018   3.733 -0.2006  0.3318  0.1095
 3121SOL    HW1 9498   1.418   1.010   3.722  0.5067  1.9839  3.5170
 3121SOL    HW2 9499   1.303   1.107   3.701 -0.4935  0.2181 -0.0280
 3122SOL     OW 9500   4.486   0.824   4.443 -0.4533 -0.4134  0.1233
 3122SOL    HW1 9501   4.405   0.810   4.492  0.0256  1.1283  1.4423
 3122SOL    HW2 9502   4.542   0.750   4.469 -0.8240 -0.5441  0.5707
 3123SOL     OW 9503   1.899   4.903   1.682  0.2321 -0.3496  0.0208
 3123SOL    HW1 9504   1.883   4.909   1.588 -3.5185  0.6152  0.5813
 3123SOL    HW2 9505   1.954   4.979   1.702 -0.2075  0.3124 -1.1678
 3124SOL     OW 9506   1.860   4.141   1.193 -0.2829 -0.9108  0.2162
 3124SOL    HW1 9507   1.797   4.132   1.265 -0.1706 -0.0579  0.4287
 3124SOL    HW2 9508   1.938   4.095   1.224  0.6713  1.5631  1.7534
 3125SOL     OW 9509   3.802   1.925   0.363  0.1111 -0.0609  0.3790
 3125SOL    HW1 9510   3.816   1.905   0.456  2.0574  0.5759  0.2659
 3125SOL    HW2 9511   3.805   1.840   0.320  2.2310 -0.1592  0.6029
 3126SOL     OW 9512   0.657   0.671   3.923  0.0233  0.3985  0.3678
 3126SOL    HW1 9513   0.584   0.610   3.912  0.8591 -0.4031 -1.0082
 3126SOL    HW2 9514   0.619   0.746   3.968 -1.6675  0.0108 -0.3365
 3127SOL     OW 9515   3.834   2.677   0.009 -0.0489 -0.3142  0.0408
 3127SOL    HW1 9516   3.794   2.704   0.092 -0.6691 -1.0782  0.0040
 3127SOL    HW2 9517   3.895   2.747  -0.012 -0.3019  0.1667  0.8568
 3128SOL     OW 9518   1.011   3.062   4.597 -0.5353 -0.2389  0.1528
 3128SOL    HW1 9519   1.092   3.011   4.591  1.1558  2.3910 -0.8100
 3128SOL    HW2 9520   0.959   3.033   4.522  0.4097 -0.4747 -0.4277
 3129SOL     OW 9521   2.975   0.496   4.038 -0.3815  0.4642 -0.1820
 3129SOL    HW1 9522   2.886   0.463   4.026  0.3688 -2.8107  1.8078
 3129SOL    HW2 9523   2.986   0.500   4.133  2.0437 -0.7845 -0.3412
 3130SOL     OW 9524   1.033   2.645   2.269  0.1347 -0.4160  0.0366
 3130SOL    HW1 9525   1.012   2.645   2.175 -0.9025  2.6842  0.1565
 3130SOL    HW2 9526   0.982   2.573   2.305 -2.7767  0.8545 -1.2218
 3131SOL     OW 9527   3.198   2.568   0.528  0.1447 -0.2493  0.1654
 3131SOL    HW1 9528   3.113   2.524   0.528  0.6164 -1.2678 -1.3469
 3131SOL    HW2 9529   3.257   2.505   0.569  0.2957  0.1695  0.5923
 3132SOL     OW 9530   4.624   1.667   0.889  0.1564  0.0272  0.8208
 3132SOL    HW1 9531   4.691   1.734   0.872  0.5937 -0.3284  1.1110
 3132SOL    HW2 9532   4.672   1.596   0.931  0.1180 -1.3568 -1.3340
 3133SOL     OW 9533   2.433   2.120   4.510 -0.3378 -0.2694 -0.6597
 3133SOL    HW1 9534   2.349   2.115   4.463 -1.3924 -0.1618  1.1186
 3133SOL    HW2 9535   2.461   2.211   4.499 -1.1939  0.0782 -0.0816
 3134SOL     OW 9536   1.009   3.010   1.191 -0.8902  0.1362  0.0776
 3134SOL    HW1 9537   0.945   3.065   1.146 -1.5809  0.0336  0.9089
 3134SOL    HW2 9538   0.996   3.030   1.284  0.6127  0.4629  0.2452
 3135SOL     OW 9539   1.743   2.116   3.117 -0.5486 -0.3362 -0.0608
 3135SOL    HW1 9540   1.739   2.204   3.080  0.1699 -0.3777 -0.2532
 3135SOL    HW2 9541   1.757   2.130   3.211 -2.7057 -0.2275  0.2863
 3136SOL     OW 9542   4.746   1.401   2.624 -0.5184 -0.8465  0.2443
 3136SOL    HW1 9543   4.668   1.365   2.665 -0.5535  0.2898  1.2153
 3136SOL    HW2 9544   4.774   1.472   2.682  0.1248  0.0293 -1.0878
 3137SOL     OW 9545   4.732   4.850   4.831  0.0737 -0.1807 -0.4282
 3137SOL    HW1 9546   4.670   4.829   4.901  1.5593 -0.2128  0.9241
 3137SOL    HW2 9547   4.745   4.944   4.838  0.7098 -0.2827 -0.2518
 3138SOL     OW 9548   1.911   2.458   4.557 -0.7051  0.0112 -0.6320
 3138SOL    HW1 9549   1.991   2.424   4.517  1.2352  2.2580  1.0614
 3138SOL    HW2 9550   1.877   2.384   4.608 -0.4897 -1.3651 -2.3871
 3139SOL     OW 9551   2.690   1.181   4.653 -0.6443 -0.7556  0.1759
 3139SOL    HW1 9552   2.737   1.140   4.726  0.1859 -1.3990 -0.7103
 3139SOL    HW2 9553   2.743   1.256   4.629  0.9257 -2.4009 -1.9114
 3140SOL     OW 9554   3.407   4.693   1.101  0.0725  0.3767 -0.4229
 3140SOL    HW1 9555   3.409   4.634   1.176  1.8015 -0.2462 -0.8961
 3140SOL    HW2 9556   3.486   4.670   1.051 -3.0280 -2.3015 -4.8212
 3141SOL     OW 9557   4.379   1.665   0.370  0.3404  0.3576 -0.4019
 3141SOL    HW1 9558   4.386   1.761   0.362 -0.6409  0.6169  1.3569
 3141SOL    HW2 9559   4.307   1.642   0.312 -1.0363  1.0484  0.9467
 3142SOL     OW 9560   1.224   3.663   1.112 -0.2276  0.1350 -0.6901
 3142SOL    HW1 9561   1.213   3.611   1.032  0.2792 -0.8404 -0.1497
 3142SOL    HW2 9562   1.135   3.691   1.134 -0.2107  1.7901 -2.4525
 3143SOL     OW 9563   1.753   0.958   0.823  0.8339  0.1782  0.4857
 3143SOL    HW1 9564   1.813   0.971   0.896  1.0221  0.7645  0.2370
 3143SOL    HW2 9565   1.669   0.991   0.854  0.9994  0.7798  0.3223
 3144SOL     OW 9566   0.546   3.526   1.703 -0.4740  0.1933  0.3749
 3144SOL    HW1 9567   0.603   3.497   1.632  0.1605  2.1707  0.0191
 3144SOL    HW2 9568   0.493   3.596   1.664 -0.1242  1.3092  1.8294
 3145SOL     OW 9569   1.676   2.864   2.006  0.0963  0.5096 -0.0566
 3145SOL    HW1 9570   1.644   2.774   1.998 -0.2020  0.3880  1.9647
 3145SOL    HW2 9571   1.770   2.855   2.019 -0.2166  0.2126  2.7776
 3146SOL     OW 9572   0.004   2.034   0.958  0.2855  0.0965  0.1397
 3146SOL    HW1 9573   0.045   2.066   0.878  0.0143  0.1617  0.0263
 3146SOL    HW2 9574   0.031   2.097   1.025 -0.4545  0.7150 -0.1311
 3147SOL     OW 9575   1.482   2.484   2.779 -0.1846  0.1527  0.6030
 3147SOL    HW1 9576   1.463   2.559   2.835  2.2184  1.5489 -0.3118
 3147SOL    HW2 9577   1.555   2.513   2.724 -0.1041 -2.3892 -0.7709
 3148SOL     OW 9578   1.224   0.715   3.428  0.1732  0.0041  0.3861
 3148SOL    HW1 9579   1.150   0.664   3.393 -0.8040  2.1562 -0.9166
 3148SOL    HW2 9580   1.184   0.775   3.491  0.8587  0.8839  0.0041
 3149SOL     OW 9581   3.720   3.648   0.545  0.5799  0.0420  0.6944
 3149SOL    HW1 9582   3.678   3.627   0.462 -0.2197  0.4559  0.9925
 3149SOL    HW2 9583   3.741   3.741   0.539  1.0769 -0.0613  0.7236
 3150SOL     OW 9584   1.276   1.542   4.478 -0.4323 -0.6213  0.2663
 3150SOL    HW1 9585   1.325   1.460   4.473  0.3773 -0.3057  2.1986
 3150SOL    HW2 9586   1.198   1.520   4.530 -0.1144 -0.1407  0.9567
 3151SOL     OW 9587   0.094   3.298   3.195  0.0288  0.2811  0.5272
 3151SOL    HW1 9588   0.137   3.218   3.224  0.6345 -0.0546 -1.2037
 3151SOL    HW2 9589   0.148   3.369   3.230  0.8059 -0.1175  0.1607
 3152SOL     OW 9590   1.519   3.218   1.022 -0.2585  0.2665  0.8857
 3152SOL    HW1 9591   1.546   3.309   1.014 -1.0885  0.5957  1.6950
 3152SOL    HW2 9592   1.463   3.215   1.099 -1.6331 -0.5806 -0.0821
 3153SOL     OW 9593   2.075   3.150   0.945  0.0602  0.2463  0.0426
 3153SOL    HW1 9594   2.120   3.234   0.936  0.1670  0.1046 -0.8939
 3153SOL    HW2 9595   1.986   3.172   0.971  0.2537  0.6115  0.4047
 3154SOL     OW 9596   0.745   0.959   1.122 -0.5255 -0.4976 -0.0863
 3154SOL    HW1 9597   0.747   0.948   1.217  2.0013 -0.7627 -0.0929
 3154SOL    HW2 9598   0.746   0.869   1.088  0.3698 -0.4025 -0.3298
 3155SOL     OW 9599   0.412   3.317   3.046 -0.2113  0.0300  0.6778
 3155SOL    HW1 9600   0.469   3.241   3.032 -0.3333 -0.2535  1.6422
 3155SOL    HW2 9601   0.357   3.321   2.968  0.1425 -0.5739  0.3927
 3156SOL     OW 9602   4.936   4.077   0.517  0.0136 -0.0754  0.2114
 3156SOL    HW1 9603   4.963   4.130   0.442 -0.4734  0.5430  0.4566
 3156SOL    HW2 9604   4.968   3.989   0.498 -0.8632 -0.1295 -1.1520
 3157SOL     OW 9605   4.903   3.013   0.464 -1.0665  0.8141 -0.5636
 3157SOL    HW1 9606   4.829   2.951   0.464  1.0794 -2.0497  1.4090
 3157SOL    HW2 9607   4.889   3.068   0.387 -4.8078 -0.0461 -0.6840
 3158SOL     OW 9608   3.058   3.015   3.291 -0.1464  0.1978  0.9339
 3158SOL    HW1 9609   3.057   3.053   3.203  0.6610  0.7283  1.1397
 3158SOL    HW2 9610   2.997   2.942   3.286  1.3680 -1.0395 -0.6540
 3159SOL     OW 9611   0.544   0.721   1.604  0.0956  0.4776 -0.6425
 3159SOL    HW1 9612   0.508   0.809   1.610 -2.2735 -0.4576  0.3864
 3159SOL    HW2 9613   0.503   0.685   1.525 -1.7649 -0.7563  0.7837
 3160SOL     OW 9614   4.482   1.455   3.226 -0.1819  0.4377  0.3522
 3160SOL    HW1 9615   4.425   1.394   3.179  0.8138 -0.2095 -0.0502
 3160SOL    HW2 9616   4.460   1.541   3.191 -1.1231  0.2352  0.4311
 3161SOL     OW 9617   4.860   4.737   2.014 -0.3023  0.6563  0.9304
 3161SOL    HW1 9618   4.935   4.708   2.066 -0.3228  0.9565  1.1345
 3161SOL    HW2 9619   4.818   4.804   2.069 -0.7911  0.4063  0.8740
 3162SOL     OW 9620   0.636   0.409   4.800  0.5076 -0.1341  0.0398
 3162SOL    HW1 9621   0.595   0.334   4.844 -0.0789  0.2089  0.0916
 3162SOL    HW2 9622   0.620   0.393   4.707  1.2794 -0.5862 -0.0258
 3163SOL     OW 9623   2.226   3.905   4.721  0.5866  0.2378 -0.3833
 3163SOL    HW1 9624   2.134   3.926   4.702  0.9295  2.1451 -0.1841
 3163SOL    HW2 9625   2.228   3.810   4.728 -1.1495  0.0594 -1.5756
 3164SOL     OW 9626   4.787   0.881   0.584 -0.2643 -0.4754 -0.1614
 3164SOL    HW1 9627   4.719   0.825   0.545  1.0747 -0.5831 -2.5150
 3164SOL    HW2 9628   4.749   0.968   0.584 -0.3849 -0.5087 -1.6076
 3165SOL     OW 9629   0.775   1.499   2.515  0.0216 -0.4505  0.2576
 3165SOL    HW1 9630   0.779   1.592   2.534  1.1545 -0.7044  1.4146
 3165SOL    HW2 9631   0.815   1.457   2.591 -0.0301 -1.8526 -0.4484
 3166SOL     OW 9632   4.213   3.342   4.767  0.0153  0.3110  0.2279
 3166SOL    HW1 9633   4.159   3.402   4.819  0.6914  0.7898  0.3930
 3166SOL    HW2 9634   4.242   3.275   4.829  0.7268  0.8177  0.4546
 3167SOL     OW 9635   1.037   0.412   0.475 -0.1456 -0.4866 -0.0794
 3167SOL    HW1 9636   1.021   0.465   0.397 -2.0974 -0.2709  0.4204
 3167SOL    HW2 9637   1.108   0.456   0.519  0.8114 -0.4521 -1.5721
 3168SOL     OW 9638   3.163   0.275   3.837  0.5294  0.3909  0.7452
 3168SOL    HW1 9639   3.181   0.368   3.845 -0.8445  0.5493  3.2832
 3168SOL    HW2 9640   3.212   0.234   3.908  0.9538 -0.8157 -0.1998
 3169SOL     OW 9641   3.958   0.830   4.091 -0.0181  0.6336  0.3693
 3169SOL    HW1 9642   4.009   0.762   4.046  1.5283  1.9636  0.0075
 3169SOL    HW2 9643   3.888   0.782   4.135  0.4074 -1.0755 -0.7086
 3170SOL     OW 9644   2.729   2.314   1.302 -0.2239 -1.1088 -0.1393
 3170SOL    HW1 9645   2.670   2.326   1.228  0.9693 -1.2026 -1.1473
 3170SOL    HW2 9646   2.727   2.398   1.348  1.6352  0.2661 -2.3076
 3171SOL     OW 9647   4.346   4.456   0.179  0.1416 -0.0226 -0.1694
 3171SOL    HW1 9648   4.401   4.531   0.153 -0.8771  0.9494  0.3666
 3171SOL    HW2 9649   4.309   4.424   0.097 -1.3437  1.6523 -0.2159
 3172SOL     OW 9650   2.484   3.381   3.185 -0.2092 -0.1643 -0.3938
 3172SOL    HW1 9651   2.505   3.367   3.277  0.8520  0.1090 -0.5804
 3172SOL    HW2 9652   2.520   3.467   3.165  0.0319 -0.4410 -1.1957
 3173SOL     OW 9653   4.188   0.191   4.008 -0.0152  0.0930 -0.3107
 3173SOL    HW1 9654   4.276   0.165   3.981 -0.5369 -1.3111 -0.7089
 3173SOL    HW2 9655   4.195   0.285   4.024  1.2456  0.2508 -1.5847
 3174SOL     OW 9656   2.693   3.224   4.713  0.6347  0.3226  0.4099
 3174SOL    HW1 9657   2.719   3.173   4.789 -1.4971 -0.1884  0.8837
 3174SOL    HW2 9658   2.720   3.172   4.638  0.6360 -0.3348  0.8579
 3175SOL     OW 9659   2.910   3.775   3.103 -0.1516 -0.0654 -0.2396
 3175SOL    HW1 9660   2.991   3.827   3.104 -0.3860  0.2976  0.6667
 3175SOL    HW2 9661   2.843   3.834   3.137 -0.2568 -1.1896  1.6723
 3176SOL     OW 9662   4.403   1.739   1.949 -0.1209  0.3058 -0.2424
 3176SOL    HW1 9663   4.331   1.740   2.012 -0.4866  2.0400 -0.6546
 3176SOL    HW2 9664   4.365   1.706   1.868 -0.1658  0.1001 -0.1369
 3177SOL     OW 9665   2.891   2.666   3.864  0.5558  0.8531 -0.0224
 3177SOL    HW1 9666   2.912   2.729   3.795 -0.3852 -0.9346 -2.0551
 3177SOL    HW2 9667   2.826   2.608   3.825  0.8038 -0.9194  2.0014
 3178SOL     OW 9668   0.249   0.952   0.268 -0.0637  0.4539  0.6574
 3178SOL    HW1 9669   0.211   0.896   0.200 -0.8337  1.2467  0.4142
 3178SOL    HW2 9670   0.175   0.975   0.324  0.1321  1.6248  0.4656
 3179SOL     OW 9671   2.119   3.346   0.370 -0.3192  0.0860  0.0216
 3179SOL    HW1 9672   2.104   3.414   0.305 -0.4936 -0.0735 -0.1050
 3179SOL    HW2 9673   2.033   3.330   0.408 -0.2038  0.2372  0.3495
 3180SOL     OW 9674   1.729   0.249   0.267 -0.1113 -0.1741  0.4932
 3180SOL    HW1 9675   1.679   0.246   0.349 -1.6160 -0.9779 -0.4303
 3180SOL    HW2 9676   1.682   0.312   0.212 -1.8143 -2.8854 -1.3900
 3181SOL     OW 9677   3.005   2.816   4.786 -0.3790  0.4508  0.0001
 3181SOL    HW1 9678   3.032   2.835   4.697  3.3628  0.1807  0.9139
 3181SOL    HW2 9679   3.077   2.848   4.841 -0.7506 -2.6537  2.6325
 3182SOL     OW 9680   1.255   1.730   4.022 -0.5019  0.5009  0.1904
 3182SOL    HW1 9681   1.250   1.746   4.116 -0.5045  0.8445  0.1333
 3182SOL    HW2 9682   1.164   1.734   3.992 -0.6006 -0.5953  0.3311
 3183SOL     OW 9683   3.565   3.608   4.598  0.4622 -0.2672 -0.1546
 3183SOL    HW1 9684   3.522   3.545   4.655 -0.5332  1.0180  0.5716
 3183SOL    HW2 9685   3.632   3.649   4.653  0.3178  0.1291 -0.2698
 3184SOL     OW 9686   0.471   4.702   1.262 -0.0333 -0.1870  0.0725
 3184SOL    HW1 9687   0.533   4.683   1.333  2.0293 -0.5706 -1.7374
 3184SOL    HW2 9688   0.453   4.795   1.270  3.5475  0.7795 -1.3224
 3185SOL     OW 9689   1.495   0.271   1.816 -0.3821 -0.3983  0.2965
 3185SOL    HW1 9690   1.488   0.179   1.793 -0.1068 -0.6451  1.1601
 3185SOL    HW2 9691   1.411   0.293   1.855 -1.2568  0.3091 -1.8580
 3186SOL     OW 9692   1.633   1.847   2.439 -0.0999  0.8617 -0.2641
 3186SOL    HW1 9693   1.550   1.801   2.455  1.4549 -2.5316 -1.0980
 3186SOL    HW2 9694   1.641   1.850   2.344  2.8248 -3.5548 -0.4646
 3187SOL     OW 9695   4.302   1.274   0.521  0.4516  0.0582 -0.4061
 3187SOL    HW1 9696   4.386   1.237   0.493 -0.5291 -0.3488 -3.1412
 3187SOL    HW2 9697   4.323   1.364   0.545  2.0977 -0.8303  1.8864
 3188SOL     OW 9698   0.619   3.041   0.043  0.2455 -0.1590  0.5430
 3188SOL    HW1 9699   0.702   2.998   0.065  0.0825 -0.0068  1.5206
 3188SOL    HW2 9700   0.552   2.979   0.071  0.0228 -0.0764  0.1951
 3189SOL     OW 9701   1.778   3.569   2.790 -0.4840 -0.0974  0.5180
 3189SOL    HW1 9702   1.863   3.568   2.746 -0.9431  1.3468 -0.5067
 3189SOL    HW2 9703   1.739   3.484   2.771  0.2391 -0.3182 -0.0070
 3190SOL     OW 9704   4.744   1.442   1.069 -0.0803  0.1999  0.3750
 3190SOL    HW1 9705   4.751   1.529   1.109  1.5246  0.9410 -1.3879
 3190SOL    HW2 9706   4.790   1.384   1.131 -2.0236  0.3444  2.0617
 3191SOL     OW 9707   2.932   4.307   0.357 -0.1264  0.6971 -0.1287
 3191SOL    HW1 9708   2.897   4.387   0.317  1.4316  1.5161  0.0371
 3191SOL    HW2 9709   2.958   4.335   0.445 -1.9498 -0.6641  0.9009
 3192SOL     OW 9710   4.534   1.361   4.019  0.4534  0.2275  0.4417
 3192SOL    HW1 9711   4.553   1.429   4.084  1.5439 -0.0215  0.3960
 3192SOL    HW2 9712   4.568   1.280   4.058 -1.0854 -0.3677  0.6257
 3193SOL     OW 9713   3.244   2.385   3.382  0.1684 -0.5905  0.0334
 3193SOL    HW1 9714   3.180   2.360   3.315  1.1042 -0.1917 -1.0276
 3193SOL    HW2 9715   3.242   2.481   3.381  0.0223 -0.5838  0.7494
 3194SOL     OW 9716   1.325   1.878   4.902 -0.3338  0.0577  0.1727
 3194SOL    HW1 9717   1.378   1.863   4.823 -0.5566  0.6534 -0.0977
 3194SOL    HW2 9718   1.301   1.971   4.897  0.6352  0.4133  1.5592
 3195SOL     OW 9719   2.653   0.128   1.625 -0.3764  0.0302 -0.1409
 3195SOL    HW1 9720   2.657   0.057   1.689 -0.8769  0.8103  0.7826
 3195SOL    HW2 9721   2.740   0.168   1.629 -0.5118  0.2843  0.2970
 3196SOL     OW 9722   2.150   1.171   0.878 -0.1518  0.3592  0.2570
 3196SOL    HW1 9723   2.069   1.180   0.827 -1.1474 -0.6842  1.5831
 3196SOL    HW2 9724   2.122   1.182   0.969  1.1566 -0.3058  0.7623
 3197SOL     OW 9725   1.700   2.406   3.044  0.5349  0.1610  0.2832
 3197SOL    HW1 9726   1.618   2.410   2.995 -1.1858 -0.5799  2.9276
 3197SOL    HW2 9727   1.755   2.474   3.005 -1.5307  1.0619 -1.1872
 3198SOL     OW 9728   0.261   0.299   1.459  0.3660 -0.2053 -0.1541
 3198SOL    HW1 9729   0.297   0.387   1.444 -3.4585  1.4647 -0.9912
 3198SOL    HW2 9730   0.255   0.261   1.371  0.5535 -0.6695  0.0318
 3199SOL     OW 9731   0.048   2.263   1.435  0.5128 -0.2686  0.2373
 3199SOL    HW1 9732   0.044   2.357   1.452  0.4787 -0.3453  0.6654
 3199SOL    HW2 9733  -0.029   2.228   1.478  0.0808 -0.3950 -0.6149
 3200SOL     OW 9734   2.073   3.954   3.492 -0.3730  0.0197 -0.3385
 3200SOL    HW1 9735   2.032   4.003   3.421  0.8317  0.5837 -0.6690
 3200SOL    HW2 9736   2.086   3.866   3.457 -2.1451 -0.4697  0.1095
 3201SOL     OW 9737   2.494   1.672   1.851 -0.2396 -0.3621 -0.3980
 3201SOL    HW1 9738   2.482   1.766   1.837 -0.5195 -0.3495 -0.1004
 3201SOL    HW2 9739   2.432   1.650   1.921  0.9973 -0.4387  0.7261
 3202SOL     OW 9740   3.021   0.699   3.872 -0.1895  0.1782  0.3622
 3202SOL    HW1 9741   3.007   0.617   3.920  0.1014  0.6127  1.2066
 3202SOL    HW2 9742   3.057   0.671   3.788 -3.1005 -0.7838 -0.6993
 3203SOL     OW 9743   3.426   3.851   0.251 -0.5565  0.0445  0.7352
 3203SOL    HW1 9744   3.355   3.792   0.276  0.1158 -0.8800  0.5448
 3203SOL    HW2 9745   3.385   3.917   0.195 -1.2980 -0.3503  0.8041
 3204SOL     OW 9746   3.654   0.238   0.110 -0.4880  0.1583  0.3618
 3204SOL    HW1 9747   3.560   0.256   0.117 -0.6839 -0.3445 -0.8042
 3204SOL    HW2 9748   3.687   0.248   0.200 -1.7399 -0.1549  0.8780
 3205SOL     OW 9749   0.598   3.033   2.290 -0.0771 -0.0303  0.0721
 3205SOL    HW1 9750   0.676   3.087   2.299 -0.4908  0.5789  0.0506
 3205SOL    HW2 9751   0.551   3.070   2.215 -1.0272  0.4182  0.8671
 3206SOL     OW 9752   3.322   3.567   4.952  0.8494  0.3979 -0.7411
 3206SOL    HW1 9753   3.387   3.527   4.894  0.7767 -1.1248  0.1589
 3206SOL    HW2 9754   3.370   3.634   5.000  3.0846 -3.3378  2.9244
 3207SOL     OW 9755   2.214   0.108   1.551 -0.9948 -0.3389 -0.0234
 3207SOL    HW1 9756   2.220   0.203   1.547 -0.2427 -0.3069  1.2983
 3207SOL    HW2 9757   2.264   0.084   1.629 -1.3276 -1.8056 -0.2304
 3208SOL     OW 9758   3.354   0.112   4.039  0.1537  0.5799 -0.0173
 3208SOL    HW1 9759   3.410   0.067   3.976  0.2805  0.7414 -0.0231
 3208SOL    HW2 9760   3.403   0.108   4.121 -1.5083 -2.6543  0.9557
 3209SOL     OW 9761   2.341   3.150   0.302 -0.7010  0.1731 -0.0962
 3209SOL    HW1 9762   2.292   3.072   0.327  0.5318 -0.7996 -0.5735
 3209SOL    HW2 9763   2.426   3.141   0.346 -0.5460  1.2659 -0.1288
 3210SOL     OW 9764   2.328   0.837   0.549 -0.5611  0.0248 -0.5332
 3210SOL    HW1 9765   2.363   0.921   0.519 -0.6472 -0.4494 -2.0551
 3210SOL    HW2 9766   2.378   0.816   0.627 -0.5794  1.5185 -0.1066
 3211SOL     OW 9767   4.870   0.217   1.243 -0.4620  0.2119  0.4632
 3211SOL    HW1 9768   4.822   0.214   1.160  0.3224  1.9907 -0.0879
 3211SOL    HW2 9769   4.906   0.305   1.247  2.9774 -1.0719  0.7413
 3212SOL     OW 9770   1.991   4.078   4.098 -0.5846  0.0249  0.3011
 3212SOL    HW1 9771   1.995   4.146   4.165 -0.5458 -0.6306  0.9761
 3212SOL    HW2 9772   1.972   4.125   4.017 -0.5543  0.8361  0.7557
 3213SOL     OW 9773   2.877   4.591   2.492  0.0433  0.2640  0.0138
 3213SOL    HW1 9774   2.837   4.592   2.406  0.6047 -0.0682 -0.2540
 3213SOL    HW2 9775   2.970   4.574   2.476  0.0760 -0.2505  0.7081
 3214SOL     OW 9776   3.699   1.692   4.154  0.2859 -0.4657  0.1034
 3214SOL    HW1 9777   3.649   1.716   4.232 -0.7541 -1.0496 -0.3575
 3214SOL    HW2 9778   3.633   1.686   4.084  1.1790 -0.0897 -0.7913
 3215SOL     OW 9779   3.032   0.082   4.150 -0.2771  0.5511 -0.1129
 3215SOL    HW1 9780   3.095   0.055   4.084 -2.6153 -3.7550 -0.9276
 3215SOL    HW2 9781   3.086   0.119   4.220  3.0839 -1.7337 -1.2275
 3216SOL     OW 9782   3.493   3.715   2.167  1.1378  0.4383  0.0468
 3216SOL    HW1 9783   3.435   3.774   2.121  1.7723  1.0394  0.0020
 3216SOL    HW2 9784   3.566   3.770   2.196  1.7404 -0.3135  0.0014
 3217SOL     OW 9785   0.042   2.007   4.734  0.7989 -0.1680 -0.8518
 3217SOL    HW1 9786   0.118   2.065   4.729  0.6885  0.6270  2.9696
 3217SOL    HW2 9787  -0.033   2.066   4.741  0.3392 -0.8087 -0.1458
 3218SOL     OW 9788   0.363   4.199   4.955 -0.0205  0.4043 -0.5622
 3218SOL    HW1 9789   0.404   4.115   4.974  1.3613  1.1524 -0.1285
 3218SOL    HW2 9790   0.417   4.237   4.886 -1.1676  0.5626 -1.4080
 3219SOL     OW 9791   4.382   2.824   3.030 -0.5609  0.8482  0.2264
 3219SOL    HW1 9792   4.309   2.847   3.087 -0.5120  0.1968  0.5626
 3219SOL    HW2 9793   4.453   2.882   3.056 -0.3387  0.1399  1.2824
 3220SOL     OW 9794   0.485   0.310   2.370 -0.1187  0.4125 -0.1248
 3220SOL    HW1 9795   0.561   0.351   2.330  0.1491  0.2423  0.1977
 3220SOL    HW2 9796   0.485   0.221   2.337  0.0166  0.3155  0.1297
 3221SOL     OW 9797   4.232   3.960   4.857  0.9961 -0.6233  0.4018
 3221SOL    HW1 9798   4.293   4.031   4.837 -1.5884  1.4063 -0.8186
 3221SOL    HW2 9799   4.211   3.972   4.949  0.3110  0.4621  0.1176
 3222SOL     OW 9800   3.715   0.915   3.874 -0.0262 -0.1145 -0.2723
 3222SOL    HW1 9801   3.721   1.009   3.890  0.8126 -0.2460  0.2331
 3222SOL    HW2 9802   3.804   0.887   3.854 -0.2604 -0.8078 -0.4024
 3223SOL     OW 9803   1.069   2.572   1.476  0.0887  0.1611 -0.8325
 3223SOL    HW1 9804   1.064   2.662   1.441 -0.8908  0.8646  0.9991
 3223SOL    HW2 9805   0.988   2.531   1.445  0.0848  0.2071 -0.8852
 3224SOL     OW 9806   0.821   3.668   4.298 -0.4329 -0.6543 -0.5469
 3224SOL    HW1 9807   0.858   3.584   4.325 -3.4590 -1.6084  1.0661
 3224SOL    HW2 9808   0.862   3.732   4.357  1.6257 -0.9786 -1.5458
 3225SOL     OW 9809   1.964   1.852   0.266  0.5671 -0.4285 -0.4151
 3225SOL    HW1 9810   1.974   1.775   0.323  1.6456  0.0944  0.1306
 3225SOL    HW2 9811   2.053   1.873   0.239  0.3805  1.0857  0.0595
 3226SOL     OW 9812   2.372   3.013   2.732 -0.1756  0.2899  0.1511
 3226SOL    HW1 9813   2.460   2.986   2.705 -0.8087 -2.5383  0.5647
 3226SOL    HW2 9814   2.366   2.985   2.824 -1.4642  0.5696  0.1689
 3227SOL     OW 9815   1.377   0.183   1.526  0.2887 -0.5584 -0.0626
 3227SOL    HW1 9816   1.402   0.127   1.600 -0.0477 -2.4364 -1.3208
 3227SOL    HW2 9817   1.452   0.242   1.516  0.0599  0.2199  2.1710
 3228SOL     OW 9818   1.129   3.026   3.113 -0.2070 -0.1032 -0.2580
 3228SOL    HW1 9819   1.135   2.932   3.131  0.2097 -0.2612 -1.1382
 3228SOL    HW2 9820   1.133   3.067   3.199 -3.4471 -0.9820  0.4463
 3229SOL     OW 9821   3.593   0.858   3.035  0.3393  0.0623 -0.0753
 3229SOL    HW1 9822   3.614   0.768   3.011  1.8538  0.2848  0.3243
 3229SOL    HW2 9823   3.503   0.870   3.004 -0.1876 -1.8293  0.5780
 3230SOL     OW 9824   0.291   3.724   3.947  0.3316 -0.2592  0.2653
 3230SOL    HW1 9825   0.293   3.653   3.883 -1.1815  2.1490 -2.6696
 3230SOL    HW2 9826   0.380   3.759   3.948  0.0233  0.7652 -1.9859
 3231SOL     OW 9827   1.062   3.498   1.965 -0.1695  0.3912  0.0697
 3231SOL    HW1 9828   0.967   3.507   1.972 -0.1857  0.4485 -0.1915
 3231SOL    HW2 9829   1.096   3.585   1.984 -0.0824  0.0714  1.5022
 3232SOL     OW 9830   3.424   1.527   1.485 -1.0105 -0.1626 -0.0671
 3232SOL    HW1 9831   3.480   1.472   1.429 -0.7881  1.1232 -1.1735
 3232SOL    HW2 9832   3.335   1.510   1.454 -0.9799 -0.1952 -0.1376
 3233SOL     OW 9833   0.858   2.256   3.108  0.3432 -0.4971 -0.0752
 3233SOL    HW1 9834   0.921   2.184   3.108  0.4364 -0.4188  0.5936
 3233SOL    HW2 9835   0.802   2.239   3.032  0.7170 -0.9611 -0.2531
 3234SOL     OW 9836   1.687   2.914   2.867 -0.0431 -0.5048 -0.2039
 3234SOL    HW1 9837   1.730   2.997   2.890  0.2601 -1.0358  1.2747
 3234SOL    HW2 9838   1.749   2.847   2.894 -1.2956 -1.2598  0.9220
 3235SOL     OW 9839   1.251   3.398   1.535 -0.5113 -0.0344 -0.3822
 3235SOL    HW1 9840   1.203   3.438   1.463  0.7016  1.2649 -0.5072
 3235SOL    HW2 9841   1.193   3.408   1.611 -0.0133  2.6293 -0.2595
 3236SOL     OW 9842   1.304   0.320   2.107 -0.1774 -0.2487 -0.4484
 3236SOL    HW1 9843   1.273   0.237   2.143  0.2696 -0.3720 -0.3412
 3236SOL    HW2 9844   1.325   0.300   2.016  2.5131 -0.9715  0.2276
 3237SOL     OW 9845   3.377   3.067   0.694 -0.6248 -0.0307  0.2925
 3237SOL    HW1 9846   3.356   3.005   0.625  0.0269 -0.0398  0.0957
 3237SOL    HW2 9847   3.391   3.151   0.649 -0.6262  0.0626  0.4623
 3238SOL     OW 9848   0.219   1.968   4.205  0.0548 -0.9896  0.0875
 3238SOL    HW1 9849   0.165   2.041   4.173  0.0950 -0.2441  1.6245
 3238SOL    HW2 9850   0.305   1.982   4.165  0.0324 -0.2382  0.2884
 3239SOL     OW 9851   2.850   4.634   2.235 -0.2154  0.3855  0.0198
 3239SOL    HW1 9852   2.810   4.584   2.164  0.7400  1.2118 -1.1485
 3239SOL    HW2 9853   2.818   4.724   2.221  0.6148  0.7029  0.1521
 3240SOL     OW 9854   2.177   3.206   3.773 -0.2350 -0.0839  0.3417
 3240SOL    HW1 9855   2.264   3.169   3.763  0.3299  1.5927 -1.5554
 3240SOL    HW2 9856   2.191   3.290   3.818 -0.9427 -0.0411  0.4999
 3241SOL     OW 9857   1.002   4.423   3.441  0.0259 -0.2435  1.0806
 3241SOL    HW1 9858   0.934   4.381   3.493  0.5039  0.7892  2.6368
 3241SOL    HW2 9859   1.084   4.395   3.481  0.4557 -0.2006  0.2563
 3242SOL     OW 9860   0.601   2.606   3.082  0.1156  0.1226 -0.2215
 3242SOL    HW1 9861   0.689   2.630   3.051  1.3254 -0.7018  2.2768
 3242SOL    HW2 9862   0.617   2.552   3.159 -2.6260 -0.6476 -0.0887
 3243SOL     OW 9863   4.328   4.774   2.604  0.4875  0.1467  0.2041
 3243SOL    HW1 9864   4.318   4.865   2.574 -1.3518  0.6948  2.1887
 3243SOL    HW2 9865   4.249   4.730   2.573  1.4109 -0.8096 -0.8109
 3244SOL     OW 9866   4.926   1.114   4.235  1.0292 -0.3320 -0.4229
 3244SOL    HW1 9867   5.008   1.159   4.255 -0.1508  1.7817 -0.1170
 3244SOL    HW2 9868   4.926   1.037   4.293  2.0814  0.4803  0.6971
 3245SOL     OW 9869   3.018   0.896   0.637  0.3568 -0.2531  0.1647
 3245SOL    HW1 9870   3.099   0.881   0.686 -0.6362 -0.1139  1.9393
 3245SOL    HW2 9871   3.024   0.987   0.609  1.8460 -0.8855 -1.8468
 3246SOL     OW 9872   1.226   0.430   4.215 -0.1169 -0.3358 -0.0547
 3246SOL    HW1 9873   1.209   0.363   4.149 -2.1536 -1.3659  1.4155
 3246SOL    HW2 9874   1.318   0.453   4.202  0.1058 -1.9740 -1.8936
 3247SOL     OW 9875   1.287   2.417   1.471 -0.4579 -0.3851 -0.1879
 3247SOL    HW1 9876   1.213   2.472   1.497 -0.5564 -0.6876  0.1774
 3247SOL    HW2 9877   1.278   2.338   1.525 -0.1872 -0.6594 -0.5431
 3248SOL     OW 9878   0.367   2.079   4.632  0.5921  0.4633  0.9740
 3248SOL    HW1 9879   0.360   2.145   4.562 -1.3815 -0.9812 -0.2894
 3248SOL    HW2 9880   0.439   2.022   4.605  0.0824  0.1341  0.2833
 3249SOL     OW 9881   4.161   4.349   0.418 -0.3793 -0.0462  0.0513
 3249SOL    HW1 9882   4.251   4.347   0.386 -1.3148 -0.1558 -2.8557
 3249SOL    HW2 9883   4.151   4.436   0.456  0.9891 -0.1078  0.5932
 3250SOL     OW 9884   2.453   0.826   2.144 -0.5897 -0.7493  0.3593
 3250SOL    HW1 9885   2.539   0.795   2.116 -1.3108 -2.3315 -0.2315
 3250SOL    HW2 9886   2.441   0.787   2.231 -0.5612 -0.2205  0.6036
 3251SOL     OW 9887   4.944   2.267   4.800 -0.0918  0.0850  0.0613
 3251SOL    HW1 9888   4.884   2.318   4.746  0.7049  0.6478 -0.3166
 3251SOL    HW2 9889   4.980   2.331   4.862 -0.5834 -0.4409  0.9126
 3252SOL     OW 9890   0.870   1.994   4.837  0.4958 -0.2923  0.4393
 3252SOL    HW1 9891   0.811   2.060   4.801  0.2435 -0.4632  0.5339
 3252SOL    HW2 9892   0.937   2.044   4.883  0.2482 -0.1020  0.6010
 3253SOL     OW 9893   1.660   1.006   0.563  0.0301 -0.5709 -0.3433
 3253SOL    HW1 9894   1.755   1.002   0.554  0.1877  1.5493 -0.0252
 3253SOL    HW2 9895   1.646   1.014   0.658 -0.5157 -1.5841 -0.3293
 3254SOL     OW 9896   1.045   4.270   3.828 -0.2362 -0.1816 -0.0967
 3254SOL    HW1 9897   1.117   4.328   3.801 -0.1313 -1.1265 -1.9895
 3254SOL    HW2 9898   0.967   4.310   3.791 -0.6645  0.5252  1.4684
 3255SOL     OW 9899   1.996   1.346   3.371 -0.1896 -0.1133  0.1819
 3255SOL    HW1 9900   2.076   1.330   3.322 -0.3866 -0.6127  0.0097
 3255SOL    HW2 9901   2.019   1.414   3.435 -0.2278  1.4229 -1.3717
 3256SOL     OW 9902   4.091   0.989   1.859  0.1943  0.3636 -0.2095
 3256SOL    HW1 9903   4.049   0.906   1.835  0.0949  0.1843  0.5668
 3256SOL    HW2 9904   4.026   1.056   1.840 -0.1482  0.1602  0.2429
 3257SOL     OW 9905   4.119   2.597   2.530  0.4095 -0.3630  0.4359
 3257SOL    HW1 9906   4.158   2.519   2.569  1.1307 -1.2964 -1.9587
 3257SOL    HW2 9907   4.033   2.605   2.572  0.0442 -2.8427  0.2682
 3258SOL     OW 9908   2.699   0.086   3.908  0.2147 -0.3268 -0.3577
 3258SOL    HW1 9909   2.611   0.109   3.877  0.1695  0.1063  0.0868
 3258SOL    HW2 9910   2.706  -0.008   3.891  0.3707 -0.0424 -2.1264
 3259SOL     OW 9911   1.311   1.131   0.051  0.6503  0.6384 -0.0276
 3259SOL    HW1 9912   1.388   1.186   0.067  0.0056  1.6926 -0.4442
 3259SOL    HW2 9913   1.238   1.181   0.088  0.2344 -0.6650  0.9820
 3260SOL     OW 9914   2.696   2.226   0.890  0.6417 -0.6119  0.5727
 3260SOL    HW1 9915   2.781   2.264   0.869 -0.3819  1.3815 -0.1836
 3260SOL    HW2 9916   2.646   2.298   0.929 -2.2098 -0.3355 -3.0761
 3261SOL     OW 9917   2.333   3.382   4.012  0.3211  0.2238 -0.3732
 3261SOL    HW1 9918   2.317   3.291   3.986 -1.3221  0.6133 -0.8572
 3261SOL    HW2 9919   2.302   3.386   4.103 -1.7733  0.7700 -1.0383
 3262SOL     OW 9920   2.041   3.159   0.175 -0.1581 -0.3463  0.2443
 3262SOL    HW1 9921   2.076   3.209   0.249 -1.8722  0.2949  0.6826
 3262SOL    HW2 9922   2.060   3.068   0.195  0.4989 -0.0752  0.8615
 3263SOL     OW 9923   4.052   3.835   2.532 -0.2998 -0.3245 -0.0009
 3263SOL    HW1 9924   3.988   3.815   2.600  1.2522  0.3210  1.7329
 3263SOL    HW2 9925   4.072   3.751   2.492 -2.2492 -0.5224 -0.6334
 3264SOL     OW 9926   2.307   1.469   2.720 -0.1082 -0.0103 -0.1240
 3264SOL    HW1 9927   2.392   1.431   2.700  0.0058 -0.4582  1.1277
 3264SOL    HW2 9928   2.245   1.415   2.671 -0.0142 -2.3403  2.1120
 3265SOL     OW 9929   0.603   3.555   4.466  0.4842  0.1277 -0.3278
 3265SOL    HW1 9930   0.647   3.608   4.400  1.3408 -0.7695 -0.5025
 3265SOL    HW2 9931   0.668   3.545   4.535  0.5323 -1.1351 -0.5393
 3266SOL     OW 9932   3.727   0.248   3.721  0.3455  0.0781 -0.1285
 3266SOL    HW1 9933   3.783   0.309   3.672 -1.1228  0.3093 -1.6065
 3266SOL    HW2 9934   3.683   0.304   3.786  3.1749 -0.4105  2.4764
 3267SOL     OW 9935   2.610   3.864   1.992 -0.3149 -0.3720 -0.0774
 3267SOL    HW1 9936   2.566   3.946   2.011  1.2048  0.6081 -0.6053
 3267SOL    HW2 9937   2.558   3.825   1.921  0.3624  1.4061 -1.6457
 3268SOL     OW 9938   2.237   2.204   2.599  0.7052  0.0043  0.0928
 3268SOL    HW1 9939   2.178   2.266   2.556  0.2208 -1.2730 -1.1488
 3268SOL    HW2 9940   2.253   2.242   2.686 -1.4002  0.7301  0.2136
 3269SOL     OW 9941   2.464   4.656   0.126  0.0919  0.2845 -0.7031
 3269SOL    HW1 9942   2.447   4.694   0.040  2.4071  0.3774 -1.1813
 3269SOL    HW2 9943   2.500   4.729   0.177  2.4926 -0.6313 -0.9463
 3270SOL     OW 9944   0.497   0.235   1.302  0.3394  0.4555 -0.4267
 3270SOL    HW1 9945   0.482   0.140   1.298 -0.2659  0.4767  0.8254
 3270SOL    HW2 9946   0.473   0.267   1.215 -1.2911 -0.3036 -0.2981
 3271SOL     OW 9947   2.906   4.949   1.902  0.1131 -0.1860 -0.4565
 3271SOL    HW1 9948   2.952   4.875   1.942  1.3951 -0.4700 -2.3047
 3271SOL    HW2 9949   2.956   5.026   1.930  0.1558 -0.2442 -0.3724
 3272SOL     OW 9950   2.974   3.403   4.840  1.0129  0.0347  0.4927
 3272SOL    HW1 9951   2.949   3.379   4.751 -1.5843  0.7949  0.9155
 3272SOL    HW2 9952   3.022   3.328   4.873  0.6872 -0.8924 -1.0420
 3273SOL     OW 9953   3.584   1.398   3.028  0.6955  0.0021  0.6763
 3273SOL    HW1 9954   3.567   1.485   2.991  0.3358 -0.6391 -0.7143
 3273SOL    HW2 9955   3.679   1.386   3.021  0.4905 -0.6729 -1.3904
 3274SOL     OW 9956   3.228   4.077   4.748 -0.0560  0.5810  0.2426
 3274SOL    HW1 9957   3.266   4.140   4.687  1.5791  0.4620  1.0655
 3274SOL    HW2 9958   3.266   3.993   4.722 -0.6061  0.2754  0.4222
 3275SOL     OW 9959   4.540   4.796   2.785  0.0735  0.5062 -0.2633
 3275SOL    HW1 9960   4.475   4.819   2.718 -0.3986  0.9486  0.3296
 3275SOL    HW2 9961   4.495   4.733   2.841  0.0410  1.0553  0.3377
 3276SOL     OW 9962   0.785   1.351   3.272  0.3187 -0.3522 -0.9227
 3276SOL    HW1 9963   0.800   1.269   3.319 -0.9578  0.2707  0.6487
 3276SOL    HW2 9964   0.704   1.336   3.223  0.7895 -0.4444 -1.7051
 3277SOL     OW 9965   2.888   2.053   1.347  0.0631  0.1423  0.7813
 3277SOL    HW1 9966   2.952   2.046   1.277  1.4568 -0.7400  2.0790
 3277SOL    HW2 9967   2.866   2.146   1.351 -0.8272  0.0828 -1.4478
 3278SOL     OW 9968   0.064   4.314   3.667 -0.4865  0.1364  0.5122
 3278SOL    HW1 9969   0.156   4.324   3.690 -0.6944 -0.3576  1.6666
 3278SOL    HW2 9970   0.048   4.380   3.600  0.5155  0.7610  0.8672
 3279SOL     OW 9971   1.931   3.376   2.532 -0.1755  0.5908 -0.2048
 3279SOL    HW1 9972   1.937   3.472   2.537  1.5602  0.5664 -1.1014
 3279SOL    HW2 9973   2.020   3.346   2.546 -1.0499 -1.0708  2.3285
 3280SOL     OW 9974   4.873   3.600   2.815 -0.1680  0.4729 -0.0266
 3280SOL    HW1 9975   4.874   3.611   2.720  1.5346  1.9410  0.1179
 3280SOL    HW2 9976   4.864   3.689   2.850 -1.1058 -0.0659  1.2130
 3281SOL     OW 9977   3.437   0.868   2.133  0.5609 -0.0904 -0.4917
 3281SOL    HW1 9978   3.365   0.885   2.194 -0.1097 -0.4954 -1.1604
 3281SOL    HW2 9979   3.488   0.799   2.175 -2.3378 -3.6198 -2.2374
 3282SOL     OW 9980   2.322   4.663   4.144 -0.4086  0.1700  0.2499
 3282SOL    HW1 9981   2.341   4.574   4.175 -0.2994 -0.5508 -1.7390
 3282SOL    HW2 9982   2.255   4.695   4.204 -0.1486 -1.0816  1.2730
 3283SOL     OW 9983   1.593   3.623   3.770  0.6228  0.9955 -0.0412
 3283SOL    HW1 9984   1.506   3.662   3.776  0.9763  1.6441  1.3371
 3283SOL    HW2 9985   1.642   3.662   3.843  1.5673 -0.6172  0.2504
 3284SOL     OW 9986   1.971   4.798   2.473 -0.0606 -0.0867  0.1067
 3284SOL    HW1 9987   1.953   4.719   2.524  0.6097 -0.6274 -0.4763
 3284SOL    HW2 9988   1.939   4.870   2.528 -0.0406 -0.7103  0.9522
 3285SOL     OW 9989   2.787   4.552   0.189  0.3224  0.7389 -0.2402
 3285SOL    HW1 9990   2.749   4.481   0.138 -0.7841  0.4320  0.9543
 3285SOL    HW2 9991   2.771   4.631   0.137  0.7563  0.2375 -1.1489
 3286SOL     OW 9992   0.609   1.289   1.764 -0.1590 -0.0307  0.1023
 3286SOL    HW1 9993   0.655   1.211   1.794 -1.1976 -1.1363 -1.0733
 3286SOL    HW2 9994   0.535   1.298   1.823 -0.2507 -0.1550  0.0056
 3287SOL     OW 9995   4.376   1.639   0.984  0.1559 -0.1668 -0.1522
 3287SOL    HW1 9996   4.454   1.662   0.935 -0.6181  2.0297 -0.4816
 3287SOL    HW2 9997   4.405   1.573   1.047  2.2647  0.6523 -0.2057
 3288SOL     OW 9998   1.901   1.064   1.563 -0.0223 -0.5737  0.0204
 3288SOL    HW1 9999   1.807   1.080   1.569  0.1346  0.0185  1.1303
 3288SOL    HW210000   1.925   1.095   1.475 -1.3463 -3.5069 -1.5307
 3289SOL     OW10001   0.711   3.780   2.103 -0.6561 -0.7232  0.2008
 3289SOL    HW110002   0.707   3.876   2.098  1.7101 -0.5697 -0.1979
 3289SOL    HW210003   0.711   3.761   2.197  0.8069 -0.1360  0.3565
 3290SOL     OW10004   4.861   3.224   2.629  0.1869 -0.1008  0.3127
 3290SOL    HW110005   4.903   3.284   2.689  2.2208 -0.2508 -0.8768
 3290SOL    HW210006   4.888   3.137   2.659  0.8103 -0.1969 -0.4891
 3291SOL     OW10007   0.180   1.119   4.392  0.2733 -0.0217 -0.5065
 3291SOL    HW110008   0.137   1.110   4.478 -1.0978  1.1875 -1.0353
 3291SOL    HW210009   0.244   1.048   4.391 -0.1335 -0.4800  1.2522
 3292SOL     OW10010   2.520   3.391   0.552 -0.3027 -1.1904  0.3036
 3292SOL    HW110011   2.453   3.456   0.572 -0.3544 -1.1902  0.1316
 3292SOL    HW210012   2.471   3.309   0.544 -0.6205 -0.8491 -2.0219
 3293SOL     OW10013   3.053   4.419   2.321  0.0452  0.4977  0.3434
 3293SOL    HW110014   3.096   4.501   2.295  1.6384 -0.9410 -1.9278
 3293SOL    HW210015   2.975   4.415   2.266  0.9079 -0.3009 -0.8638
 3294SOL     OW10016   0.356   0.358   1.985 -0.6481  0.1280 -0.5449
 3294SOL    HW110017   0.287   0.293   1.974  1.4284 -2.3397  0.1148
 3294SOL    HW210018   0.345   0.418   1.911 -2.3774 -1.1967 -1.4359
 3295SOL     OW10019   3.716   3.460   4.269 -0.5783  0.0274  0.5193
 3295SOL    HW110020   3.763   3.405   4.332 -1.0314  0.1358  0.9546
 3295SOL    HW210021   3.785   3.512   4.228 -0.3452  0.5100  1.4811
 3296SOL     OW10022   4.434   2.818   0.315 -0.0316  0.5853  0.4888
 3296SOL    HW110023   4.458   2.771   0.395  0.1559 -0.5001 -0.1836
 3296SOL    HW210024   4.484   2.775   0.246 -1.1389  0.6897 -0.4029
 3297SOL     OW10025   0.617   0.362   3.094  0.3261  0.4397 -0.0085
 3297SOL    HW110026   0.681   0.312   3.044  0.0533  0.4684 -0.3888
 3297SOL    HW210027   0.668   0.431   3.136  0.7786 -0.3880  0.8562
 3298SOL     OW10028   2.625   4.132   4.412  0.3126 -0.0096  0.7575
 3298SOL    HW110029   2.584   4.123   4.498  2.4146  3.9135  2.4060
 3298SOL    HW210030   2.551   4.135   4.351 -1.3368 -1.0303  2.5667
 3299SOL     OW10031   2.559   0.376   1.459  0.2891 -0.3509  0.1510
 3299SOL    HW110032   2.588   0.294   1.500  0.2218  0.4421  1.9010
 3299SOL    HW210033   2.641   0.420   1.436  0.3717 -0.1872  0.7418
 3300SOL     OW10034   0.071   4.179   0.783  0.2889  0.8339  0.6420
 3300SOL    HW110035   0.026   4.154   0.702 -0.5310  0.2092  1.2712
 3300SOL    HW210036   0.164   4.175   0.760  0.1532 -1.2215  0.2304
 3301SOL     OW10037   2.526   3.152   2.053 -0.2436  0.1240  0.4354
 3301SOL    HW110038   2.483   3.120   1.974 -0.3926  0.2700  0.4557
 3301SOL    HW210039   2.548   3.074   2.103 -0.4347  0.0450  0.3967
 3302SOL     OW10040   1.893   4.107   3.680 -0.1205  0.4015  0.1881
 3302SOL    HW110041   1.842   4.027   3.688  0.0385  0.3196  0.3765
 3302SOL    HW210042   1.897   4.124   3.586 -1.0697  0.7768  0.2058
 3303SOL     OW10043   4.066   1.868   0.566 -0.6681  0.1637 -0.0614
 3303SOL    HW110044   4.157   1.881   0.593 -0.7992  1.0967 -0.0307
 3303SOL    HW210045   4.016   1.871   0.648 -0.8622  1.0232 -0.2047
 3304SOL     OW10046   2.957   3.538   2.124 -0.0047 -0.6168  0.6099
 3304SOL    HW110047   3.018   3.488   2.071 -0.4063 -0.6552  0.1724
 3304SOL    HW210048   2.881   3.552   2.067  0.2774  0.8654  0.5621
 3305SOL     OW10049   0.213   3.975   2.306 -0.0180 -0.2891 -0.3585
 3305SOL    HW110050   0.130   4.004   2.268  0.1111 -0.0669 -0.4723
 3305SOL    HW210051   0.213   3.880   2.295 -1.1406 -0.5321  1.4244
 3306SOL     OW10052   0.976   1.497   2.970 -0.0925  0.0748  0.6517
 3306SOL    HW110053   1.066   1.473   2.992  0.4687  0.9359 -0.5935
 3306SOL    HW210054   0.932   1.506   3.055  0.9545 -0.4892  1.2661
 3307SOL     OW10055   2.323   3.969   0.942  0.5808  0.3229 -0.1973
 3307SOL    HW110056   2.359   4.028   0.875 -0.0013 -0.0791 -0.8887
 3307SOL    HW210057   2.230   3.962   0.918  0.7250 -1.1845 -0.3547
 3308SOL     OW10058   1.971   1.707   1.307 -0.0902  0.0275  0.1331
 3308SOL    HW110059   1.916   1.653   1.250  1.0822 -1.6915  0.5408
 3308SOL    HW210060   1.911   1.749   1.367 -1.4036  1.9733 -2.3505
 3309SOL     OW10061   2.330   1.959   2.050  0.1565  0.1448  0.3032
 3309SOL    HW110062   2.248   1.989   2.011  0.7754 -0.7058 -1.7753
 3309SOL    HW210063   2.394   2.027   2.027  0.4442 -0.1633  0.1795
 3310SOL     OW10064   2.334   4.000   4.989  0.0651 -0.1172  0.3531
 3310SOL    HW110065   2.344   4.084   5.034  0.0649 -0.6424  1.3775
 3310SOL    HW210066   2.330   4.022   4.896 -1.7847  1.1956  0.6962
 3311SOL     OW10067   0.900   2.588   0.023  0.5702  0.5044 -0.4692
 3311SOL    HW110068   0.983   2.545   0.001  1.0583  1.3717 -0.3663
 3311SOL    HW210069   0.904   2.673  -0.020  1.2794  2.0161  2.3088
 3312SOL     OW10070   4.877   4.178   3.336  0.1271  0.0018  0.3016
 3312SOL    HW110071   4.870   4.198   3.429 -0.7068  2.1301 -0.1458
 3312SOL    HW210072   4.795   4.133   3.315  0.0252  0.1146  0.4581
 3313SOL     OW10073   4.515   3.145   1.273 -0.3983  0.2871 -0.3165
 3313SOL    HW110074   4.569   3.146   1.194 -1.1953 -0.6606 -0.9105
 3313SOL    HW210075   4.566   3.094   1.336  0.1196  0.8062 -0.3107
 3314SOL     OW10076   4.015   4.022   2.832 -0.3931 -0.3677  0.3455
 3314SOL    HW110077   4.109   4.015   2.851 -0.2329  2.0003  0.7666
 3314SOL    HW210078   4.008   3.994   2.740  0.6876 -0.8003  0.3736
 3315SOL     OW10079   2.493   1.639   3.296 -0.0823  0.6970  0.5529
 3315SOL    HW110080   2.530   1.713   3.343  0.5810  0.3784  0.5489
 3315SOL    HW210081   2.532   1.644   3.209 -1.2654  1.2571  0.0324
 3316SOL     OW10082   0.137   3.203   2.309  0.2021 -0.3135 -1.1041
 3316SOL    HW110083   0.134   3.134   2.376  3.2621  1.5652  1.1914
 3316SOL    HW210084   0.053   3.249   2.318  0.3281 -0.4482  1.0708
 3317SOL     OW10085   2.273   2.922   2.496 -1.0211  0.0188 -0.1573
 3317SOL    HW110086   2.310   2.954   2.579  1.7462  2.2708 -2.0832
 3317SOL    HW210087   2.345   2.875   2.454 -1.2055  1.8046 -2.6852
 3318SOL     OW10088   1.657   0.436   0.483 -0.3628 -0.3550  0.5625
 3318SOL    HW110089   1.586   0.420   0.545  0.2501 -1.3745  1.0258
 3318SOL    HW210090   1.657   0.531   0.471 -1.4247 -0.2825  0.9951
 3319SOL     OW10091   2.693   3.095   1.068  0.2530  0.2164  0.4004
 3319SOL    HW110092   2.758   3.107   1.137  0.0871 -0.1376  0.6250
 3319SOL    HW210093   2.674   3.183   1.037  1.2394  0.2812 -0.0432
 3320SOL     OW10094   3.347   2.538   4.746 -0.0022 -0.3889  0.2966
 3320SOL    HW110095   3.374   2.447   4.730 -0.7164 -0.4231 -0.8942
 3320SOL    HW210096   3.384   2.587   4.673  0.3940  0.2976  0.9425
 3321SOL     OW10097   4.879   4.779   4.274 -0.5273  0.0747  0.2933
 3321SOL    HW110098   4.944   4.710   4.259  0.2094  0.5404  1.2288
 3321SOL    HW210099   4.814   4.738   4.331 -1.4752 -0.6180 -1.2315
 3322SOL     OW10100   1.937   2.281   2.902  0.8769  0.8463  0.6055
 3322SOL    HW110101   1.980   2.299   2.985  0.3150 -3.5271  2.1295
 3322SOL    HW210102   1.853   2.327   2.908  2.4933  4.0996  0.4101
 3323SOL     OW10103   0.506   2.978   0.568  0.4196  0.6794  0.2105
 3323SOL    HW110104   0.452   3.025   0.505  0.6140  0.6543  0.0255
 3323SOL    HW210105   0.451   2.969   0.646  0.1584  0.6544  0.0213
 3324SOL     OW10106   4.305   1.405   4.521 -0.0546  0.6872 -0.3638
 3324SOL    HW110107   4.305   1.404   4.617 -0.8991  0.2104 -0.3622
 3324SOL    HW210108   4.396   1.390   4.497  0.1357  0.6406  0.3643
 3325SOL     OW10109   4.052   0.338   4.489 -0.6023  0.1552 -0.1080
 3325SOL    HW110110   4.018   0.421   4.522  0.7079  0.4712  0.5079
 3325SOL    HW210111   4.009   0.327   4.404 -0.8871  1.4141 -0.1459
 3326SOL     OW10112   4.973   0.553   4.642  0.0883 -0.0037  0.0317
 3326SOL    HW110113   5.062   0.540   4.608  0.9097 -0.6468  2.2581
 3326SOL    HW210114   4.925   0.475   4.614  0.9923 -0.9576  1.0415
 3327SOL     OW10115   4.397   1.094   3.333 -0.0225 -0.0476 -0.1548
 3327SOL    HW110116   4.356   1.174   3.364 -1.4822 -0.3703 -1.1607
 3327SOL    HW210117   4.333   1.025   3.350  0.8229 -0.8630 -0.1642
 3328SOL     OW10118   2.986   1.446   0.883 -0.2780  0.8533  0.0816
 3328SOL    HW110119   2.941   1.472   0.803 -0.8128 -0.0107  0.0832
 3328SOL    HW210120   2.916   1.416   0.941  0.1700  0.8114  0.6071
 3329SOL     OW10121   0.910   1.042   3.031 -0.1719  0.0592 -0.1903
 3329SOL    HW110122   0.946   1.047   2.942 -1.1393  0.6854 -0.5604
 3329SOL    HW210123   0.950   0.963   3.068  0.9203  0.2786 -0.8677
 3330SOL     OW10124   1.291   2.523   3.671  0.3543 -0.2822 -0.3810
 3330SOL    HW110125   1.293   2.588   3.601 -1.6471 -1.7577 -1.9584
 3330SOL    HW210126   1.200   2.492   3.672  0.7401 -1.5428  1.7334
 3331SOL     OW10127   3.468   2.351   3.194 -0.4721  0.5772  0.3093
 3331SOL    HW110128   3.441   2.372   3.104  1.5321  1.4656 -0.1418
 3331SOL    HW210129   3.386   2.345   3.243 -1.6469 -0.3772 -1.6512
 3332SOL     OW10130   0.761   4.575   0.904  0.1256 -0.1983  0.7108
 3332SOL    HW110131   0.782   4.667   0.921 -0.9682 -0.0209  1.1305
 3332SOL    HW210132   0.727   4.542   0.987 -1.5292 -0.3896 -0.0158
 3333SOL     OW10133   0.850   4.965   4.224  0.3783  0.2390 -0.0769
 3333SOL    HW110134   0.871   4.921   4.141 -0.5660 -0.2308 -0.0890
 3333SOL    HW210135   0.770   4.921   4.254  0.1774  1.0483  0.6051
 3334SOL     OW10136   2.458   0.103   3.661 -0.1080  0.4142 -0.1370
 3334SOL    HW110137   2.527   0.045   3.630 -0.8284  0.7449 -2.5877
 3334SOL    HW210138   2.452   0.170   3.593 -1.7476  1.3044  0.8377
 3335SOL     OW10139   4.395   1.664   4.761  0.4194  0.0428  0.4641
 3335SOL    HW110140   4.455   1.640   4.832  0.1882 -0.3324  0.5339
 3335SOL    HW210141   4.452   1.702   4.694  0.5708  0.9784  1.0964
 3336SOL     OW10142   4.731   4.353   4.580  0.3288  0.2753 -0.2357
 3336SOL    HW110143   4.644   4.372   4.544 -1.5384 -1.7554  2.7158
 3336SOL    HW210144   4.721   4.365   4.675  3.3121 -0.0264  0.2174
 3337SOL     OW10145   0.161   2.044   3.381 -0.1834 -0.3273  0.4271
 3337SOL    HW110146   0.242   1.997   3.359 -0.4482 -0.4607 -0.2726
 3337SOL    HW210147   0.141   2.095   3.302 -0.9494 -0.5316  0.4878
 3338SOL     OW10148   2.253   0.264   4.688 -0.7066  0.0491 -0.3895
 3338SOL    HW110149   2.189   0.240   4.621 -1.6440  1.7970 -0.1857
 3338SOL    HW210150   2.336   0.272   4.641 -0.7107 -1.6940 -0.7564
 3339SOL     OW10151   4.649   2.753   0.159  0.0800  0.1435  0.1695
 3339SOL    HW110152   4.730   2.705   0.171 -0.1041 -0.4066 -0.7236
 3339SOL    HW210153   4.677   2.843   0.140  0.4650  0.0573  0.3254
 3340SOL     OW10154   1.628   0.710   0.435  0.5948  0.5288  0.2372
 3340SOL    HW110155   1.551   0.697   0.379 -0.1690  2.0828  0.8446
 3340SOL    HW210156   1.676   0.781   0.392  0.9356  0.5197  0.6080
 3341SOL     OW10157   0.677   4.127   1.700  0.4132 -1.2467 -0.8547
 3341SOL    HW110158   0.748   4.097   1.756  1.2256  0.9187 -0.6235
 3341SOL    HW210159   0.611   4.058   1.705  0.9847 -1.6999  1.7971
 3342SOL     OW10160   3.631   0.662   2.199 -0.0519 -0.5735 -0.3083
 3342SOL    HW110161   3.712   0.642   2.151  0.3413 -1.6074  0.7448
 3342SOL    HW210162   3.613   0.584   2.250 -1.4657 -0.1651 -0.1358
 3343SOL     OW10163   1.544   0.397   4.444 -0.2057 -0.1053  0.7011
 3343SOL    HW110164   1.544   0.369   4.352 -0.4955 -0.1501  0.7158
 3343SOL    HW210165   1.564   0.491   4.439 -2.3027  0.3759  0.4426
 3344SOL     OW10166   2.448   1.062   3.827 -0.2501 -0.5040 -0.0704
 3344SOL    HW110167   2.441   1.006   3.904 -1.1735 -0.7071 -0.3004
 3344SOL    HW210168   2.420   1.148   3.858 -1.1161 -0.6979 -0.2971
 3345SOL     OW10169   0.517   3.568   0.613  0.3434 -0.2259 -0.4210
 3345SOL    HW110170   0.531   3.622   0.690  0.9466 -1.3314  0.2781
 3345SOL    HW210171   0.447   3.508   0.639  0.2031 -0.2764 -0.9152
 3346SOL     OW10172   3.324   0.954   4.628  0.0289 -0.4640 -0.1958
 3346SOL    HW110173   3.386   0.979   4.697  0.0324  1.2925 -0.7771
 3346SOL    HW210174   3.238   0.956   4.671 -0.2898  3.1006 -0.6721
 3347SOL     OW10175   1.584   2.330   2.157  0.2312 -0.6294 -0.5497
 3347SOL    HW110176   1.501   2.283   2.156 -0.1149 -0.0002 -1.1960
 3347SOL    HW210177   1.599   2.349   2.250  0.6374 -2.4483 -0.2027
 3348SOL     OW10178   2.189   3.975   2.437  0.4065 -0.0358  0.5633
 3348SOL    HW110179   2.260   3.917   2.465 -0.3364 -2.0427 -1.4308
 3348SOL    HW210180   2.161   3.940   2.353 -0.7425  2.7153 -0.3202
 3349SOL     OW10181   4.141   1.104   4.781 -0.8718  0.1440 -0.0113
 3349SOL    HW110182   4.047   1.087   4.779 -0.9168  0.3453  0.2939
 3349SOL    HW210183   4.162   1.128   4.691 -0.8218 -1.3482 -0.4226
 3350SOL     OW10184   2.913   2.199   2.745  0.0007 -0.1043  0.6650
 3350SOL    HW110185   2.918   2.115   2.701  1.3272  0.4427 -0.2857
 3350SOL    HW210186   2.922   2.264   2.675  0.2104  0.8082  1.5096
 3351SOL     OW10187   1.101   0.622   0.315  0.3910  0.0286 -0.1153
 3351SOL    HW110188   1.026   0.650   0.262 -0.3750 -0.7660  0.5056
 3351SOL    HW210189   1.132   0.702   0.357  0.9257  0.6448 -1.6241
 3352SOL     OW10190   3.368   1.310   4.837  0.2898  0.4011  0.2222
 3352SOL    HW110191   3.366   1.355   4.922  0.5270 -0.8577  0.9148
 3352SOL    HW210192   3.340   1.221   4.856  1.6111 -0.2670 -0.7952
 3353SOL     OW10193   3.108   0.471   3.237 -0.6431 -0.3967  0.1176
 3353SOL    HW110194   3.088   0.526   3.312  0.0267 -1.3214  0.9994
 3353SOL    HW210195   3.060   0.511   3.164 -3.3973 -0.9367  1.5160
 3354SOL     OW10196   4.532   2.335   3.141  0.5408  0.1626  0.2195
 3354SOL    HW110197   4.549   2.252   3.095 -2.2488  0.3054 -1.2648
 3354SOL    HW210198   4.541   2.313   3.233  1.7888 -1.2828 -0.1959
 3355SOL     OW10199   4.881   1.543   5.003 -0.4325 -0.4071  0.4104
 3355SOL    HW110200   4.892   1.498   4.920  0.3415  0.2205  0.1559
 3355SOL    HW210201   4.834   1.623   4.981 -1.3309 -0.8223  0.7762
 3356SOL     OW10202   4.551   2.483   4.772  0.0493  0.1465 -0.2867
 3356SOL    HW110203   4.492   2.408   4.782 -0.0645  0.3670  0.8898
 3356SOL    HW210204   4.571   2.486   4.679 -1.4800 -0.1823 -0.6527
 3357SOL     OW10205   2.019   4.562   4.856  0.0553  1.4689 -0.7320
 3357SOL    HW110206   1.937   4.598   4.891 -0.5410  0.4381 -1.0488
 3357SOL    HW210207   2.035   4.611   4.775 -0.6810  1.1148 -1.0937
 3358SOL     OW10208   1.275   2.841   2.227  0.2282  0.0146  0.1915
 3358SOL    HW110209   1.351   2.795   2.264  0.3052  1.8032  2.5021
 3358SOL    HW210210   1.199   2.791   2.259  0.3475  0.6629  1.5446
 3359SOL     OW10211   0.488   2.013   0.579 -0.1582 -0.1766  0.0051
 3359SOL    HW110212   0.451   1.944   0.634  0.0905  1.1110  1.8730
 3359SOL    HW210213   0.564   2.044   0.628  0.2923  0.7740 -1.2653
 3360SOL     OW10214   4.458   0.729   1.589  0.1480  0.5106  0.0535
 3360SOL    HW110215   4.447   0.711   1.682  0.3265 -0.1356 -0.0404
 3360SOL    HW210216   4.519   0.660   1.559  2.0335  2.1229 -0.0459
 3361SOL     OW10217   2.877   4.773   1.702 -0.2680 -0.4498 -0.2248
 3361SOL    HW110218   2.891   4.859   1.742 -0.4158 -0.2292 -0.6472
 3361SOL    HW210219   2.936   4.715   1.751 -0.4071 -0.1760  0.2808
 3362SOL     OW10220   4.403   1.099   3.999 -0.3220  1.2505  0.2057
 3362SOL    HW110221   4.471   1.106   4.067 -0.1531  2.1763 -0.0511
 3362SOL    HW210222   4.365   1.012   4.013  1.0385  0.6251  0.2327
 3363SOL     OW10223   4.446   0.772   1.190 -0.6573 -0.8020  0.5500
 3363SOL    HW110224   4.394   0.749   1.267 -0.0253  1.1544  1.6082
 3363SOL    HW210225   4.401   0.847   1.152  0.0295 -0.6242  0.0663
 3364SOL     OW10226   0.887   4.557   4.329  0.4780 -0.0676 -0.0442
 3364SOL    HW110227   0.856   4.617   4.397 -0.9876 -0.3974 -0.3764
 3364SOL    HW210228   0.976   4.536   4.354  0.3115  0.6198  1.2137
 3365SOL     OW10229   3.050   3.134   3.037  0.2232  0.6093 -0.1875
 3365SOL    HW110230   3.139   3.132   3.002  0.2361  0.1710 -0.1328
 3365SOL    HW210231   3.029   3.227   3.044  0.1161  0.7119 -1.6111
 3366SOL     OW10232   1.043   2.327   1.269 -0.2950 -0.3791 -0.0683
 3366SOL    HW110233   1.025   2.420   1.281 -0.9723 -0.6758  1.4610
 3366SOL    HW210234   1.013   2.308   1.180 -0.7027  0.7298 -0.1835
 3367SOL     OW10235   2.674   4.481   2.650  0.0355 -0.1645  0.7545
 3367SOL    HW110236   2.617   4.429   2.594  1.7786 -2.5659  1.0649
 3367SOL    HW210237   2.739   4.518   2.591 -0.3574  0.5197  0.7335
 3368SOL     OW10238   4.540   4.605   2.344 -0.0628 -1.2550  0.7372
 3368SOL    HW110239   4.500   4.570   2.423 -0.5557  0.3032  1.2296
 3368SOL    HW210240   4.468   4.609   2.281  0.0682 -1.4379  0.5748
 3369SOL     OW10241   1.415   2.515   3.898 -0.8578 -0.5170  0.0878
 3369SOL    HW110242   1.351   2.528   3.828  0.1420  0.5047 -0.6682
 3369SOL    HW210243   1.467   2.439   3.869 -0.3753 -0.0288 -0.3527
 3370SOL     OW10244   3.647   1.591   4.476  0.1628 -0.4999 -0.3070
 3370SOL    HW110245   3.591   1.546   4.540  2.0658 -2.7545 -0.0977
 3370SOL    HW210246   3.590   1.658   4.438 -2.2111 -1.6758  0.9265
 3371SOL     OW10247   4.403   0.127   1.302  0.2857 -0.1438  0.0861
 3371SOL    HW110248   4.354   0.111   1.221  1.5839 -2.7210 -0.3170
 3371SOL    HW210249   4.340   0.110   1.372  0.5589 -4.2833 -0.4029
 3372SOL     OW10250   1.770   3.151   2.503 -0.4410  0.5979  0.2814
 3372SOL    HW110251   1.818   3.233   2.505  0.1184  0.2784 -0.0473
 3372SOL    HW210252   1.809   3.098   2.573 -0.2067  0.2835 -0.0818
 3373SOL     OW10253   4.470   0.846   0.680  0.1617 -0.3902  0.1499
 3373SOL    HW110254   4.482   0.762   0.725  0.6033  0.1970  1.1399
 3373SOL    HW210255   4.532   0.905   0.721 -1.8486  1.1061  1.1871
 3374SOL     OW10256   1.994   3.715   0.648 -0.0129  0.4658  0.0851
 3374SOL    HW110257   2.023   3.795   0.604 -1.3975  0.6751 -0.5021
 3374SOL    HW210258   1.898   3.721   0.649 -0.0753 -0.2200  1.8715
 3375SOL     OW10259   2.044   4.317   0.966  1.0205 -0.5261  0.1080
 3375SOL    HW110260   2.060   4.253   0.898  0.8902 -2.9688  2.2260
 3375SOL    HW210261   1.993   4.271   1.032  0.0580  2.0662  1.3360
 3376SOL     OW10262   2.922   0.197   1.725 -0.8187 -0.1932  0.1338
 3376SOL    HW110263   3.014   0.189   1.697 -1.0654  0.5037 -0.9307
 3376SOL    HW210264   2.926   0.193   1.821  0.4770  1.0289  0.1777
 3377SOL     OW10265   4.969   3.971   0.153  0.1512 -0.0273  0.0544
 3377SOL    HW110266   4.887   3.925   0.169 -0.4670  1.1402  0.3580
 3377SOL    HW210267   4.953   4.060   0.185  1.5905  0.1746  0.2675
 3378SOL     OW10268   1.236   3.177   3.335 -0.7427 -0.0237  0.2699
 3378SOL    HW110269   1.261   3.149   3.423 -0.9711  2.3969  1.1798
 3378SOL    HW210270   1.173   3.247   3.349 -1.2311  0.0324 -1.8651
 3379SOL     OW10271   0.788   2.084   0.623  0.6495  0.2698 -0.0916
 3379SOL    HW110272   0.882   2.101   0.630  0.6522  0.3309 -0.2637
 3379SOL    HW210273   0.781   1.991   0.605  0.6965  0.3369 -0.4715
 3380SOL     OW10274   2.764   1.587   2.375 -0.4734 -0.0982  0.0914
 3380SOL    HW110275   2.849   1.570   2.336 -0.3290  0.2088  0.2641
 3380SOL    HW210276   2.776   1.565   2.468 -0.7162 -0.4999  0.0308
 3381SOL     OW10277   4.102   3.510   1.091 -0.1457 -0.0448  0.0296
 3381SOL    HW110278   4.118   3.572   1.020  1.2920  0.2763  0.6055
 3381SOL    HW210279   4.007   3.512   1.103 -0.5148 -0.7209 -2.3964
 3382SOL     OW10280   3.365   0.864   0.385  0.3022  0.1360 -0.1659
 3382SOL    HW110281   3.347   0.958   0.387  0.4658  0.1722 -0.3840
 3382SOL    HW210282   3.279   0.824   0.370  0.0278  0.1797  1.1282
 3383SOL     OW10283   0.840   0.407   2.356  0.7321  0.6960 -0.6850
 3383SOL    HW110284   0.832   0.496   2.390 -1.0009  0.7586 -1.1885
 3383SOL    HW210285   0.929   0.403   2.322  1.1642  1.9117  0.2163
 3384SOL     OW10286   2.175   2.312   0.262 -0.5003  0.1905  0.2435
 3384SOL    HW110287   2.252   2.362   0.287  1.7391 -1.4278 -2.7682
 3384SOL    HW210288   2.161   2.252   0.336  1.2379  0.4431  0.8284
 3385SOL     OW10289   1.505   0.196   2.913 -0.1365  0.1812  0.4739
 3385SOL    HW110290   1.556   0.247   2.850  1.0447  1.3811  2.2896
 3385SOL    HW210291   1.419   0.187   2.872  0.4045  1.3835 -1.0565
 3386SOL     OW10292   2.577   1.050   1.039 -0.2687 -0.1651  0.3768
 3386SOL    HW110293   2.498   1.045   0.986 -1.9474 -2.6734  2.8388
 3386SOL    HW210294   2.549   1.023   1.126  2.7372  1.7854  2.1391
 3387SOL     OW10295   4.862   4.126   4.651 -0.2023 -0.0649 -0.2178
 3387SOL    HW110296   4.804   4.203   4.645  1.5425  1.3063 -0.2895
 3387SOL    HW210297   4.806   4.057   4.687 -1.3397  1.7840  1.8011
 3388SOL     OW10298   3.833   1.036   2.315  0.7234 -0.6246 -0.5079
 3388SOL    HW110299   3.901   0.972   2.336  1.6228  0.2252 -0.7640
 3388SOL    HW210300   3.870   1.088   2.244 -0.4688 -0.5624 -1.1025
 3389SOL     OW10301   2.778   4.645   3.097 -0.5393 -0.0955 -0.1981
 3389SOL    HW110302   2.762   4.733   3.062  0.5150 -0.2789 -1.2228
 3389SOL    HW210303   2.863   4.652   3.141 -0.7192 -0.4648  0.2137
 3390SOL     OW10304   0.422   2.687   1.818 -0.2815  0.3679 -0.4033
 3390SOL    HW110305   0.376   2.700   1.901 -1.7475 -0.9739 -0.9507
 3390SOL    HW210306   0.422   2.773   1.776 -2.6721  0.3747 -0.5303
 3391SOL     OW10307   4.946   0.502   3.642  0.3170 -0.6806 -0.0685
 3391SOL    HW110308   5.041   0.514   3.636  0.3270 -1.5830 -2.7139
 3391SOL    HW210309   4.924   0.539   3.728  2.9908 -0.1699  0.5172
 3392SOL     OW10310   4.105   3.035   4.723 -0.2538 -0.1357 -0.4387
 3392SOL    HW110311   4.158   3.064   4.797  0.7463  1.8148 -1.7957
 3392SOL    HW210312   4.157   3.061   4.646 -1.4262 -1.6980 -1.8303
 3393SOL     OW10313   1.243   3.908   0.854  0.4209  0.4897  0.0449
 3393SOL    HW110314   1.256   4.000   0.874  1.9183  0.4196 -0.4232
 3393SOL    HW210315   1.259   3.863   0.937  0.8519  0.5808  0.0143
 3394SOL     OW10316   2.371   0.805   3.286  0.0670  0.4932 -0.0258
 3394SOL    HW110317   2.354   0.841   3.199  0.3005 -1.0725 -0.7708
 3394SOL    HW210318   2.338   0.715   3.281  0.5217  0.2243  1.3525
 3395SOL     OW10319   1.699   3.247   3.567  0.2030 -0.0868  0.1896
 3395SOL    HW110320   1.621   3.302   3.577 -0.5968 -1.5021  2.7341
 3395SOL    HW210321   1.677   3.188   3.496 -1.9508 -1.6674  2.0055
 3396SOL     OW10322   4.749   0.855   1.534  0.2248 -0.8323  0.5677
 3396SOL    HW110323   4.840   0.882   1.526 -0.5523  1.6557 -0.7540
 3396SOL    HW210324   4.720   0.891   1.618 -0.0215  0.0608  0.1162
 3397SOL     OW10325   2.716   1.319   1.272 -0.3359  0.2181 -0.0526
 3397SOL    HW110326   2.675   1.250   1.324 -0.2050  1.3138  1.5896
 3397SOL    HW210327   2.799   1.282   1.244 -0.7821 -0.6913 -0.2011
 3398SOL     OW10328   0.946   0.372   3.943 -0.6527 -0.2147 -0.0791
 3398SOL    HW110329   0.919   0.343   3.857  2.1573 -0.3383 -1.0275
 3398SOL    HW210330   1.016   0.312   3.969 -0.7360  0.4220  1.8398
 3399SOL     OW10331   4.331   3.672   1.808  0.0251  0.3676 -0.1064
 3399SOL    HW110332   4.422   3.695   1.824  0.0324 -0.5510  1.3531
 3399SOL    HW210333   4.333   3.620   1.728  0.9964 -0.7620  0.6074
 3400SOL     OW10334   3.781   2.206   1.800 -0.6067  0.3815  0.1058
 3400SOL    HW110335   3.734   2.283   1.832 -0.6376 -0.0970  1.2584
 3400SOL    HW210336   3.848   2.242   1.741  0.3882  1.4497  1.7943
 3401SOL     OW10337   1.355   2.072   3.133  0.1962  0.5526  0.0754
 3401SOL    HW110338   1.406   1.991   3.145  0.0598  0.3889 -0.4216
 3401SOL    HW210339   1.391   2.111   3.054 -0.3266  0.5354 -0.1703
 3402SOL     OW10340   2.491   3.254   1.733 -0.5777 -0.1240  0.0864
 3402SOL    HW110341   2.578   3.252   1.773 -0.2576  0.5314 -0.5487
 3402SOL    HW210342   2.449   3.174   1.764  0.1532 -0.3163  0.6185
 3403SOL     OW10343   1.594   1.553   1.707 -0.3529  0.3997  0.3431
 3403SOL    HW110344   1.659   1.583   1.770  0.0180  2.2666 -0.8296
 3403SOL    HW210345   1.607   1.609   1.631 -1.7107 -0.8361 -0.8688
 3404SOL     OW10346   4.342   1.928   3.608  0.0014  0.2730 -1.1686
 3404SOL    HW110347   4.321   2.020   3.593  2.0180  0.5776 -2.5810
 3404SOL    HW210348   4.393   1.927   3.688  0.7781  0.5403 -1.6500
 3405SOL     OW10349   3.637   4.649   4.090  0.0903 -0.8309 -0.4145
 3405SOL    HW110350   3.548   4.685   4.090  0.4099 -0.0245 -0.9612
 3405SOL    HW210351   3.646   4.609   4.003  0.4476 -0.4231 -0.5699
 3406SOL     OW10352   1.580   0.733   3.859  0.2344  0.1304 -0.6523
 3406SOL    HW110353   1.587   0.651   3.810  3.3072  0.8604 -1.6803
 3406SOL    HW210354   1.546   0.796   3.796 -0.4518  0.0652 -0.3638
 3407SOL     OW10355   0.459   2.806   3.199  0.0211  0.8989 -0.8250
 3407SOL    HW110356   0.517   2.867   3.246  0.6872  0.1176 -0.6186
 3407SOL    HW210357   0.518   2.748   3.152 -0.5792 -0.2132 -0.2313
 3408SOL     OW10358   1.127   2.787   4.114  0.2955 -1.1506 -0.3193
 3408SOL    HW110359   1.219   2.807   4.097  0.4605 -0.7956  0.8639
 3408SOL    HW210360   1.129   2.706   4.165  0.0930 -0.2667  1.1700
 3409SOL     OW10361   1.544   4.092   3.607  0.0041  0.0334 -0.0839
 3409SOL    HW110362   1.523   4.061   3.519 -0.8406 -0.0555  0.1373
 3409SOL    HW210363   1.615   4.036   3.637  0.9970  0.7263 -1.0961
 3410SOL     OW10364   1.983   1.185   2.944 -0.2509 -0.0067  0.1733
 3410SOL    HW110365   1.927   1.111   2.969  0.1401  0.5372  2.9993
 3410SOL    HW210366   2.072   1.150   2.952 -0.1004  0.2151 -0.5070
 3411SOL     OW10367   4.359   1.684   3.867  0.0805  0.9081 -0.3020
 3411SOL    HW110368   4.318   1.671   3.782  0.4532  1.4594 -0.5731
 3411SOL    HW210369   4.303   1.749   3.911  2.4606  4.5040 -2.0519
 3412SOL     OW10370   1.265   0.177   0.898 -0.3535  0.5045  0.2605
 3412SOL    HW110371   1.356   0.189   0.871 -0.1171  1.9895  1.5449
 3412SOL    HW210372   1.270   0.123   0.976 -0.5192  1.0778  0.6697
 3413SOL     OW10373   2.225   1.293   3.982  0.3308  1.3944 -0.6698
 3413SOL    HW110374   2.198   1.267   4.071  1.7409 -1.8857 -1.0749
 3413SOL    HW210375   2.195   1.222   3.926  1.7478  2.1265 -2.4503
 3414SOL     OW10376   1.517   2.557   4.157  0.0689  0.1996 -0.7133
 3414SOL    HW110377   1.449   2.560   4.089 -0.2538  0.8658 -0.3710
 3414SOL    HW210378   1.490   2.623   4.221  0.8210  0.1752 -0.3607
 3415SOL     OW10379   2.979   3.369   1.394 -0.0932  0.4608  0.3331
 3415SOL    HW110380   2.932   3.303   1.343  0.4322  0.4978 -0.2092
 3415SOL    HW210381   2.917   3.396   1.462 -0.5555 -0.0883  0.1340
 3416SOL     OW10382   1.931   1.892   4.903 -0.6051  0.1449 -0.3283
 3416SOL    HW110383   1.881   1.942   4.968 -1.5305 -0.4502 -0.5676
 3416SOL    HW210384   2.006   1.856   4.952 -1.0337  0.0973  0.2963
 3417SOL     OW10385   3.856   0.458   1.245  0.0825 -0.0932  0.2096
 3417SOL    HW110386   3.914   0.423   1.177  2.1840  1.5082  1.0588
 3417SOL    HW210387   3.852   0.552   1.227 -1.4757 -0.0352  0.7730
 3418SOL     OW10388   3.837   4.315   4.354 -0.2102 -0.4278  0.6613
 3418SOL    HW110389   3.773   4.269   4.408 -0.7601 -0.5891 -0.1291
 3418SOL    HW210390   3.913   4.256   4.350  0.4316  0.2029  2.4653
 3419SOL     OW10391   4.631   4.726   0.566 -0.5119  0.4099 -0.1265
 3419SOL    HW110392   4.660   4.644   0.525 -1.4081  0.2876 -0.5309
 3419SOL    HW210393   4.708   4.757   0.614 -0.1340 -0.6204 -0.0398
 3420SOL     OW10394   1.787   1.799   0.552 -0.2335  0.0842  0.2931
 3420SOL    HW110395   1.777   1.809   0.458  0.5911  0.7665  0.2631
 3420SOL    HW210396   1.698   1.784   0.585 -0.6902  1.0738 -0.4513
 3421SOL     OW10397   3.703   4.470   0.809  0.4589  0.3136 -0.1937
 3421SOL    HW110398   3.789   4.429   0.804  0.0619 -0.5843  0.1955
 3421SOL    HW210399   3.656   4.421   0.877 -0.6894  0.1687 -1.0487
 3422SOL     OW10400   3.684   2.733   1.255  0.2818 -0.6065  0.2673
 3422SOL    HW110401   3.610   2.784   1.288  1.8024  1.3819  0.7789
 3422SOL    HW210402   3.648   2.687   1.179 -1.6514 -0.2587  0.8998
 3423SOL     OW10403   0.965   1.528   4.063 -0.2428 -0.0538  0.2215
 3423SOL    HW110404   1.051   1.505   4.096 -0.5958 -0.0006  1.2280
 3423SOL    HW210405   0.981   1.560   3.974  0.4652 -2.3572 -0.5424
 3424SOL     OW10406   3.731   2.166   2.712  0.4388  0.3204  0.6166
 3424SOL    HW110407   3.771   2.134   2.793  0.2196  1.0005  1.0031
 3424SOL    HW210408   3.794   2.142   2.644 -1.4432 -4.5818  0.2056
 3425SOL     OW10409   2.435   1.102   2.440  0.0580 -0.1951 -0.0691
 3425SOL    HW110410   2.524   1.099   2.475  0.8338  0.1829 -1.9262
 3425SOL    HW210411   2.393   1.024   2.476  1.4360 -0.9187  0.0493
 3426SOL     OW10412   4.767   4.773   1.754 -0.4981 -0.7485  0.3949
 3426SOL    HW110413   4.790   4.861   1.726 -0.4316 -1.4269 -1.8387
 3426SOL    HW210414   4.785   4.773   1.848 -1.2915  1.8306  0.6184
 3427SOL     OW10415   1.035   2.605   0.601  0.0239  0.7254 -0.1209
 3427SOL    HW110416   1.016   2.533   0.662 -3.0385  1.3048 -0.2174
 3427SOL    HW210417   1.118   2.641   0.631  1.4818 -2.5422  0.1737
 3428SOL     OW10418   1.992   2.741   1.619 -0.5011  0.0320  0.4634
 3428SOL    HW110419   1.912   2.792   1.633  0.2515  1.5927 -0.6827
 3428SOL    HW210420   2.056   2.805   1.589  0.4919 -1.5889 -1.0524
 3429SOL     OW10421   3.825   2.236   0.861 -0.5121 -0.3814 -0.1997
 3429SOL    HW110422   3.915   2.206   0.874  0.0671  1.4806  0.4710
 3429SOL    HW210423   3.802   2.277   0.945 -1.5959  0.0970 -0.7171
 3430SOL     OW10424   2.084   4.388   3.597 -0.1954  0.7245  0.1465
 3430SOL    HW110425   2.140   4.322   3.637  0.0323  0.1344 -1.0899
 3430SOL    HW210426   1.998   4.375   3.638 -0.3515 -0.8637 -0.5840
 3431SOL     OW10427   0.750   0.336   4.517 -0.4607 -0.2567 -0.0345
 3431SOL    HW110428   0.805   0.396   4.467 -0.4085 -0.1995  0.0911
 3431SOL    HW210429   0.726   0.268   4.454  0.7797 -0.9633  0.2191
 3432SOL     OW10430   0.001   1.047   1.794 -0.6326  0.4547  0.2512
 3432SOL    HW110431   0.060   1.048   1.869 -1.5051  2.9867  1.0254
 3432SOL    HW210432   0.059   1.050   1.718  0.2530 -0.5957  0.8569
 3433SOL     OW10433   4.117   0.592   2.535  0.3931 -0.4857 -0.5381
 3433SOL    HW110434   4.059   0.535   2.586 -0.3712 -1.2715 -2.2189
 3433SOL    HW210435   4.193   0.606   2.592  0.3867 -2.7868  0.1322
 3434SOL     OW10436   1.682   4.586   4.573  0.3784 -0.7123  1.0604
 3434SOL    HW110437   1.603   4.640   4.561  0.7206 -0.3801  0.2204
 3434SOL    HW210438   1.707   4.601   4.664  0.2770  0.3030  0.9363
 3435SOL     OW10439   0.220   3.134   1.767 -0.8877  0.0039  0.6235
 3435SOL    HW110440   0.288   3.201   1.778 -2.6874  1.9270  0.7941
 3435SOL    HW210441   0.211   3.096   1.854 -0.1781 -0.1278  0.6465
 3436SOL     OW10442   0.330   0.018   4.651  0.3203  0.3958  0.3114
 3436SOL    HW110443   0.276  -0.019   4.720  0.0511  1.9595  0.9633
 3436SOL    HW210444   0.300   0.108   4.642  2.8185  1.3398  0.7168
 3437SOL     OW10445   3.914   3.219   2.066  0.5236 -0.1057 -0.1140
 3437SOL    HW110446   3.932   3.281   1.995  2.4233 -0.0328  0.3561
 3437SOL    HW210447   3.827   3.184   2.047  0.6866  0.4502 -2.0703
 3438SOL     OW10448   0.954   1.535   1.529  0.2105 -0.1638 -0.5105
 3438SOL    HW110449   1.008   1.511   1.454  0.0648  0.3575 -0.7886
 3438SOL    HW210450   0.956   1.630   1.531 -1.1468 -0.1085 -0.8604
 3439SOL     OW10451   4.751   2.839   4.756 -0.1943  0.1391  0.0973
 3439SOL    HW110452   4.752   2.929   4.722 -1.8793 -0.5517 -2.0530
 3439SOL    HW210453   4.743   2.784   4.678 -1.8677 -1.7284  1.4601
 3440SOL     OW10454   3.254   2.938   4.684  0.2303  0.4622 -0.3264
 3440SOL    HW110455   3.294   3.015   4.644 -2.1698  1.1833 -1.5306
 3440SOL    HW210456   3.318   2.868   4.670  1.3621  1.6741 -1.5237
 3441SOL     OW10457   2.948   0.853   3.608  0.2393 -0.2689 -0.5926
 3441SOL    HW110458   2.966   0.946   3.615 -2.0902  0.2020  0.1119
 3441SOL    HW210459   2.911   0.829   3.693 -0.8713 -1.3823 -1.3499
 3442SOL     OW10460   3.882   3.859   4.120 -0.5775 -0.5059  0.3131
 3442SOL    HW110461   3.789   3.883   4.122 -0.4384  0.2050 -0.7520
 3442SOL    HW210462   3.925   3.925   4.173 -0.3910  0.7468 -1.3140
 3443SOL     OW10463   1.587   3.800   3.482  0.4427  0.5263  0.2509
 3443SOL    HW110464   1.619   3.886   3.456  0.0129  0.5716 -0.1447
 3443SOL    HW210465   1.512   3.784   3.425 -0.0406  0.2835  0.9509
 3444SOL     OW10466   0.989   4.937   4.600  0.1634 -0.0959  0.6967
 3444SOL    HW110467   0.957   5.005   4.658  0.7761  0.9950 -0.2075
 3444SOL    HW210468   0.931   4.941   4.524  1.3064  0.6691 -0.1552
 3445SOL     OW10469   1.543   3.966   0.959  0.1495 -0.5183  0.1578
 3445SOL    HW110470   1.492   3.886   0.971 -1.8849  0.4932 -1.0861
 3445SOL    HW210471   1.483   4.036   0.983  0.7243  0.7651 -1.8985
 3446SOL     OW10472   2.650   0.984   4.473  0.3075  0.0780  0.0071
 3446SOL    HW110473   2.669   1.057   4.533  1.7394 -1.1053  1.0656
 3446SOL    HW210474   2.577   0.938   4.514  1.2131 -0.6653  0.8469
 3447SOL     OW10475   2.377   1.687   2.119  0.2423  0.1504  0.4652
 3447SOL    HW110476   2.462   1.675   2.161  1.2808  4.3341  0.1092
 3447SOL    HW210477   2.367   1.783   2.114 -3.2866 -0.1581 -1.9423
 3448SOL     OW10478   0.517   1.942   2.973 -0.0290 -0.0647  0.1893
 3448SOL    HW110479   0.533   1.879   2.903 -0.9357  1.4699 -1.5040
 3448SOL    HW210480   0.550   1.900   3.052 -0.0927 -2.3854 -0.9475
 3449SOL     OW10481   1.598   3.655   2.573 -0.2142  0.0261 -0.2284
 3449SOL    HW110482   1.599   3.631   2.480 -1.5302  0.5929 -0.4214
 3449SOL    HW210483   1.661   3.596   2.614 -0.5347 -1.1032 -1.2827
 3450SOL     OW10484   2.142   4.603   1.409 -0.4312  0.7370  0.8955
 3450SOL    HW110485   2.095   4.680   1.376  3.4061  2.2239 -1.9217
 3450SOL    HW210486   2.129   4.536   1.342  0.3802  0.7644  0.6919
 3451SOL     OW10487   4.822   4.035   3.990  0.4392  0.4394  0.2349
 3451SOL    HW110488   4.752   3.971   3.992  1.3707 -0.7441 -2.0733
 3451SOL    HW210489   4.886   4.002   4.054 -0.0861  0.3331  0.7198
 3452SOL     OW10490   3.797   0.739   2.510 -0.3383 -0.2988 -0.3446
 3452SOL    HW110491   3.844   0.790   2.444 -0.1801  0.5905  0.4256
 3452SOL    HW210492   3.762   0.664   2.463 -1.7568  1.2181 -1.8346
 3453SOL     OW10493   3.699   1.924   1.765 -0.0972  0.0911  0.1093
 3453SOL    HW110494   3.734   1.907   1.678 -0.1652 -0.0509  0.1082
 3453SOL    HW210495   3.718   2.016   1.782 -1.9343  0.7040 -0.9226
 3454SOL     OW10496   2.491   0.301   4.551 -0.8589  0.5543 -0.2150
 3454SOL    HW110497   2.553   0.230   4.537  0.6746  1.4748  1.4738
 3454SOL    HW210498   2.534   0.359   4.614 -3.0308  1.7636  0.2807
 3455SOL     OW10499   0.750   1.698   4.112 -0.4906  0.0880 -0.1562
 3455SOL    HW110500   0.740   1.707   4.207 -1.9666  0.5289 -0.3309
 3455SOL    HW210501   0.833   1.652   4.101 -1.4050 -2.1415  1.4469
 3456SOL     OW10502   2.765   3.501   0.636  0.2097 -0.2975  0.0256
 3456SOL    HW110503   2.790   3.445   0.709  0.4853  0.6896  0.7100
 3456SOL    HW210504   2.692   3.455   0.594  0.4470 -1.1669  0.5522
 3457SOL     OW10505   0.986   1.984   2.107 -0.2515  0.0298  0.2718
 3457SOL    HW110506   0.951   2.064   2.069  0.1952 -0.7644 -1.9571
 3457SOL    HW210507   0.915   1.920   2.099  0.0258 -0.2835  0.2952
 3458SOL     OW10508   3.855   0.197   3.360  0.0838  0.3881  0.5074
 3458SOL    HW110509   3.936   0.178   3.407 -0.2184  0.9664  1.2808
 3458SOL    HW210510   3.881   0.202   3.268  0.7780 -0.2083  0.6617
 3459SOL     OW10511   1.121   2.557   4.259  0.1955 -0.5846  0.3994
 3459SOL    HW110512   1.201   2.537   4.305  1.0320 -2.4655 -1.6894
 3459SOL    HW210513   1.051   2.543   4.323  1.4124 -0.2499  1.8446
 3460SOL     OW10514   2.089   2.592   0.175  0.7493  0.4945 -0.0961
 3460SOL    HW110515   2.081   2.498   0.190  0.1873  0.7058  1.0714
 3460SOL    HW210516   2.106   2.600   0.082  3.5405 -0.9143  0.1816
 3461SOL     OW10517   4.525   0.708   0.093 -0.5889  0.5280 -0.7488
 3461SOL    HW110518   4.495   0.617   0.092 -0.1676  0.2961  1.5655
 3461SOL    HW210519   4.564   0.721   0.007 -1.0158 -1.3657 -1.2775
 3462SOL     OW10520   2.730   3.274   1.902  0.7998  0.3981  0.3347
 3462SOL    HW110521   2.677   3.247   1.978 -0.2606  3.7909  0.9836
 3462SOL    HW210522   2.820   3.253   1.927  0.2302 -1.0478  1.3238
 3463SOL     OW10523   2.687   1.676   3.113 -0.0863  0.1615  0.0446
 3463SOL    HW110524   2.778   1.652   3.094 -0.2194  0.0053 -0.3799
 3463SOL    HW210525   2.648   1.694   3.028 -1.3545 -2.8635 -0.1061
 3464SOL     OW10526   4.044   1.153   3.640  0.0171 -0.1867 -0.1561
 3464SOL    HW110527   4.134   1.138   3.669 -0.3004 -0.1283  0.8954
 3464SOL    HW210528   4.013   1.066   3.613  0.3051 -0.2504 -0.2886
 3465SOL     OW10529   1.797   2.760   1.145  0.8874 -0.0578  0.9747
 3465SOL    HW110530   1.735   2.815   1.097 -1.9073 -1.9707  2.1478
 3465SOL    HW210531   1.843   2.822   1.202 -0.1453  1.4237  0.2856
 3466SOL     OW10532   4.123   3.456   1.657 -0.3624  0.3322 -0.4843
 3466SOL    HW110533   4.056   3.484   1.596 -1.3217 -0.0011  0.3827
 3466SOL    HW210534   4.204   3.455   1.606 -1.0569  0.4936 -1.6091
 3467SOL     OW10535   1.206   1.594   3.428 -0.1536  0.8874 -0.2500
 3467SOL    HW110536   1.265   1.560   3.361  0.4557  0.5044  0.4564
 3467SOL    HW210537   1.203   1.688   3.412 -1.8558  0.5587 -2.2308
 3468SOL     OW10538   3.551   0.735  -0.022  0.1629  0.3965 -0.0960
 3468SOL    HW110539   3.575   0.749   0.070  2.3411  2.0378 -0.8486
 3468SOL    HW210540   3.475   0.791  -0.036  0.6022  1.1239  0.3921
 3469SOL     OW10541   2.558   4.927   4.616  0.5904 -0.0710  0.1600
 3469SOL    HW110542   2.465   4.928   4.592  0.7056  0.8078 -0.2830
 3469SOL    HW210543   2.598   4.865   4.555  0.2409 -0.7408  0.5969
 3470SOL     OW10544   1.527   0.226   0.809 -0.4531  0.4719 -0.4894
 3470SOL    HW110545   1.563   0.271   0.886 -0.4067  2.1339 -1.4315
 3470SOL    HW210546   1.605   0.202   0.758 -0.5256  0.3604 -0.5466
 3471SOL     OW10547   1.353   3.722   3.865  0.2212  0.2787 -0.3528
 3471SOL    HW110548   1.417   3.756   3.928 -0.7449 -1.3853  1.6435
 3471SOL    HW210549   1.275   3.776   3.879  0.4150  0.7633 -1.0966
 3472SOL     OW10550   4.090   2.582   3.818  0.5450 -0.1907 -0.0586
 3472SOL    HW110551   4.098   2.670   3.854 -0.8090  0.0723 -0.3170
 3472SOL    HW210552   4.142   2.584   3.737  0.0905  0.5542 -0.3515
 3473SOL     OW10553   4.413   4.085   3.838 -0.6976  0.0597 -0.2891
 3473SOL    HW110554   4.463   4.005   3.852 -2.1861 -0.9195 -0.3640
 3473SOL    HW210555   4.351   4.088   3.911 -0.4712  1.3148 -0.1196
 3474SOL     OW10556   1.520   0.455   2.300  0.1483 -0.0958 -0.7049
 3474SOL    HW110557   1.476   0.386   2.250  1.4504  0.8228 -3.3367
 3474SOL    HW210558   1.456   0.526   2.303  0.8625  0.8177 -3.5428
 3475SOL     OW10559   0.844   2.444   4.741 -0.0816 -0.6005  0.2212
 3475SOL    HW110560   0.752   2.467   4.750 -0.1670 -0.8225 -0.0784
 3475SOL    HW210561   0.887   2.488   4.814 -0.1183  1.1984 -0.8031
 3476SOL     OW10562   3.740   1.458   3.754 -0.0135  0.2269  0.0404
 3476SOL    HW110563   3.659   1.476   3.800 -0.8149 -1.0171 -0.8282
 3476SOL    HW210564   3.713   1.437   3.664  1.2103 -0.6386 -0.1603
 3477SOL     OW10565   2.663   0.084   3.292  0.4768  0.5409 -0.4818
 3477SOL    HW110566   2.741   0.128   3.259  0.2002  0.3496 -1.4485
 3477SOL    HW210567   2.684  -0.010   3.284  0.8644  0.4692  1.0629
 3478SOL     OW10568   1.737   3.533   0.555 -0.5968  0.0403 -0.4763
 3478SOL    HW110569   1.651   3.565   0.528  0.7116  2.3554 -2.3099
 3478SOL    HW210570   1.797   3.571   0.491  1.7405 -2.0845  0.3073
 3479SOL     OW10571   4.619   2.835   1.095  0.0592  0.2585 -0.0382
 3479SOL    HW110572   4.562   2.887   1.039  1.2637  0.1348 -1.4644
 3479SOL    HW210573   4.678   2.791   1.034  1.3230 -0.0340  1.3353
 3480SOL     OW10574   2.043   2.352   1.724  0.2301  0.0499 -0.7083
 3480SOL    HW110575   2.126   2.323   1.686  1.5587  1.9629  0.5340
 3480SOL    HW210576   1.999   2.270   1.750  0.2652 -1.1883 -4.0738
 3481SOL     OW10577   4.821   1.885   1.957  0.2208 -0.1634  0.1215
 3481SOL    HW110578   4.810   1.866   1.863 -0.0884  2.9641 -0.5785
 3481SOL    HW210579   4.770   1.817   2.001 -1.7103 -0.3049 -2.1033
 3482SOL     OW10580   1.143   0.152   3.976 -0.1128 -0.6583  0.3865
 3482SOL    HW110581   1.120   0.060   3.991  2.0491 -1.1799  0.8963
 3482SOL    HW210582   1.239   0.153   3.978 -0.0713  1.5269 -0.1993
 3483SOL     OW10583   1.032   3.802   3.716  0.2848 -0.3691 -0.1551
 3483SOL    HW110584   1.012   3.839   3.630 -0.7297  0.5032  0.4234
 3483SOL    HW210585   1.117   3.839   3.740 -0.0270  0.4254 -0.2390
 3484SOL     OW10586   3.734   2.634   3.710 -0.1294 -0.2547  0.6655
 3484SOL    HW110587   3.746   2.637   3.805  0.6113  1.7651  0.5661
 3484SOL    HW210588   3.686   2.714   3.690 -0.6886 -0.8953 -0.6230
 3485SOL     OW10589   3.860   2.697   4.230  0.4192 -0.3996  0.2292
 3485SOL    HW110590   3.897   2.612   4.250  2.5697  0.1559 -1.0986
 3485SOL    HW210591   3.852   2.741   4.315 -0.6435 -1.8413  0.9148
 3486SOL     OW10592   3.785   2.345   1.090 -0.1765  0.5872 -0.4859
 3486SOL    HW110593   3.788   2.290   1.168  1.6768 -1.8775 -2.1544
 3486SOL    HW210594   3.856   2.408   1.101  1.4242 -1.0470 -0.9717
 3487SOL     OW10595   3.289   1.071   3.359  0.1034 -0.0848 -0.1877
 3487SOL    HW110596   3.237   1.035   3.287 -0.0638  1.3158 -0.8064
 3487SOL    HW210597   3.347   1.135   3.317  1.5657 -0.8323  0.6396
 3488SOL     OW10598   4.317   1.383   4.774  0.2335 -0.1133  0.1331
 3488SOL    HW110599   4.350   1.453   4.830 -0.7907  1.2955 -0.9538
 3488SOL    HW210600   4.288   1.315   4.835 -0.1383  1.0437  1.2911
 3489SOL     OW10601   4.652   3.632   0.572 -0.1868  0.2850 -0.1933
 3489SOL    HW110602   4.582   3.604   0.513 -0.4146  0.2977  0.0682
 3489SOL    HW210603   4.727   3.578   0.549 -0.5281 -0.3090  0.0891
 3490SOL     OW10604   3.192   0.076   2.066 -0.0178 -0.2842 -0.1158
 3490SOL    HW110605   3.110   0.125   2.074  0.8845  1.3309 -0.1011
 3490SOL    HW210606   3.228   0.104   1.981  0.6357 -0.7411  0.0051
 3491SOL     OW10607   3.505   1.656   2.990  0.1086  0.0032 -0.3410
 3491SOL    HW110608   3.421   1.667   2.945  0.7303  1.2333 -1.2766
 3491SOL    HW210609   3.527   1.744   3.020  1.6537 -0.0420 -1.2403
 3492SOL     OW10610   3.900   0.363   4.805  0.0255 -0.1705 -0.0714
 3492SOL    HW110611   3.852   0.432   4.851  1.4787  0.3626  0.6791
 3492SOL    HW210612   3.842   0.287   4.809  0.1919 -0.2460  2.9252
 3493SOL     OW10613   0.193   1.439   3.165 -0.5509 -0.2616  0.1834
 3493SOL    HW110614   0.125   1.423   3.230 -1.3671 -1.2241 -0.8514
 3493SOL    HW210615   0.242   1.357   3.159  2.0543  0.9947  2.3141
 3494SOL     OW10616   4.813   0.889   2.844  0.1574 -0.1733 -0.1911
 3494SOL    HW110617   4.884   0.906   2.906 -0.8973  0.7662  0.7881
 3494SOL    HW210618   4.828   0.951   2.773 -1.1116  1.8814  1.2428
 3495SOL     OW10619   3.793   2.037   3.370 -0.0575 -0.5170 -0.3572
 3495SOL    HW110620   3.824   2.106   3.429  0.1021 -0.0533 -0.9756
 3495SOL    HW210621   3.768   2.083   3.290 -1.3394 -1.0097 -0.2596
 3496SOL     OW10622   0.235   4.173   0.203  0.4710  0.2963  0.1366
 3496SOL    HW110623   0.313   4.154   0.255  0.0831  1.2584  1.1221
 3496SOL    HW210624   0.248   4.125   0.122  1.6034 -0.3924  0.6956
 3497SOL     OW10625   4.420   2.522   3.886  0.4194  0.1331  0.1285
 3497SOL    HW110626   4.505   2.550   3.852  0.1964 -0.4206 -0.9130
 3497SOL    HW210627   4.357   2.550   3.820 -0.0195 -1.0077  0.0316
 3498SOL     OW10628   4.347   4.359   4.216  0.1650  0.3261  0.8380
 3498SOL    HW110629   4.270   4.384   4.165  0.1752  0.6836  0.9932
 3498SOL    HW210630   4.409   4.431   4.202  0.7842 -0.3461  0.0637
 3499SOL     OW10631   4.925   3.100   1.356 -0.3798  0.5257  0.3387
 3499SOL    HW110632   4.919   3.105   1.260  1.1016 -0.7096  0.1417
 3499SOL    HW210633   4.859   3.036   1.380 -0.2523  0.2878  0.0655
 3500SOL     OW10634   4.925   0.870   0.949  0.0619 -0.0084 -0.1835
 3500SOL    HW110635   4.871   0.943   0.979  1.5857  1.7217 -1.4255
 3500SOL    HW210636   4.867   0.817   0.895 -1.0811  0.2206  0.7864
 3501SOL     OW10637   0.596   4.977   0.067 -0.2034  0.6028 -0.4729
 3501SOL    HW110638   0.679   4.931   0.054 -0.7860 -1.1866  1.6258
 3501SOL    HW210639   0.602   5.053   0.009  2.9157  0.5883 -0.3473
 3502SOL     OW10640   0.890   1.909   3.004  0.5882 -0.1031 -0.8064
 3502SOL    HW110641   0.952   1.948   3.065 -0.1272  1.2357 -0.9043
 3502SOL    HW210642   0.836   1.982   2.973 -0.7006 -1.1311 -1.1121
 3503SOL     OW10643   4.429   1.345   2.336  0.1535  0.0013  0.8038
 3503SOL    HW110644   4.362   1.281   2.360 -1.4057  1.3876  0.3400
 3503SOL    HW210645   4.498   1.292   2.295 -1.8782 -1.2759 -1.2927
 3504SOL     OW10646   3.307   2.648   3.803  0.2867 -0.3326  0.1319
 3504SOL    HW110647   3.352   2.611   3.727 -0.6779 -0.4460 -0.4097
 3504SOL    HW210648   3.246   2.580   3.830  0.3432 -0.1357  0.7666
 3505SOL     OW10649   0.389   2.530   4.511 -0.2211 -0.1672 -0.0133
 3505SOL    HW110650   0.312   2.565   4.465 -0.7068  0.0086  0.9163
 3505SOL    HW210651   0.419   2.602   4.566  0.0307 -0.5405  0.3395
 3506SOL     OW10652   0.956   2.608   2.035  0.1556  0.5612 -0.4112
 3506SOL    HW110653   0.869   2.578   2.006  1.3833 -2.5652 -1.3202
 3506SOL    HW210654   1.002   2.629   1.953  1.0992 -0.5205 -0.1832
 3507SOL     OW10655   0.615   0.979   4.872 -0.3596  0.2506  1.0550
 3507SOL    HW110656   0.533   1.014   4.907 -1.0898  0.5771 -0.8564
 3507SOL    HW210657   0.591   0.940   4.788  1.2211 -0.9239  1.1012
 3508SOL     OW10658   4.919   4.381   0.944  0.5856 -0.6236  0.4793
 3508SOL    HW110659   4.968   4.307   0.908 -1.9784 -2.1533 -0.0800
 3508SOL    HW210660   4.866   4.344   1.014 -0.9219  0.6052  0.0631
 3509SOL     OW10661   1.912   4.514   3.448 -0.2146  0.5239 -0.0163
 3509SOL    HW110662   1.973   4.481   3.514 -2.2174 -0.4267  1.4488
 3509SOL    HW210663   1.968   4.551   3.380  1.9896 -0.6497  1.0669
 3510SOL     OW10664   3.195   2.010   0.011 -0.1785 -0.5253 -0.2049
 3510SOL    HW110665   3.210   2.095   0.053  1.7979 -1.4647  1.1576
 3510SOL    HW210666   3.115   2.022  -0.040 -0.1664  2.0264  0.2512
 3511SOL     OW10667   3.338   2.315   4.086  0.1910  0.3276  0.1944
 3511SOL    HW110668   3.276   2.364   4.033  0.0672  0.6883  0.6683
 3511SOL    HW210669   3.283   2.261   4.144  0.2984  1.2085  1.1408
 3512SOL     OW10670   4.731   4.604   3.830  0.3784 -0.1222  0.5256
 3512SOL    HW110671   4.759   4.513   3.819 -1.3104 -0.7160  0.8700
 3512SOL    HW210672   4.700   4.630   3.744 -0.2731 -0.2861  0.7068
 3513SOL     OW10673   4.109   0.889   0.354 -0.0849  0.1171 -0.3784
 3513SOL    HW110674   4.080   0.830   0.423 -1.2871  1.2166  0.1012
 3513SOL    HW210675   4.170   0.837   0.302  0.6184 -0.8358  1.3207
 3514SOL     OW10676   3.397   0.566   1.761 -0.0044  0.2647  0.1796
 3514SOL    HW110677   3.313   0.599   1.794  0.9457  2.0969  0.8873
 3514SOL    HW210678   3.373   0.489   1.709 -2.0772  0.5000  0.6800
 3515SOL     OW10679   3.317   1.191   0.835  0.0939  0.7079 -0.7797
 3515SOL    HW110680   3.271   1.256   0.781  2.0244  4.0313  1.2004
 3515SOL    HW210681   3.410   1.212   0.823  0.6976 -0.3811  1.4692
 3516SOL     OW10682   1.536   1.395   4.505 -0.3840 -0.7618 -0.2520
 3516SOL    HW110683   1.541   1.311   4.550  1.6978 -0.3834  0.3229
 3516SOL    HW210684   1.601   1.389   4.436 -0.6783  0.1460 -0.6203
 3517SOL     OW10685   0.282   0.679   4.705 -0.4940  0.0610 -0.1561
 3517SOL    HW110686   0.267   0.656   4.796 -0.4588  0.3648 -0.0738
 3517SOL    HW210687   0.301   0.595   4.662 -1.5027 -0.2052 -0.0889
 3518SOL     OW10688   1.146   3.750   2.042  0.2597  0.2626  0.3808
 3518SOL    HW110689   1.117   3.828   2.089  0.0118  0.2944  0.1813
 3518SOL    HW210690   1.208   3.707   2.100  0.8990  0.9644  0.2204
 3519SOL     OW10691   1.492   2.383   1.165  0.3554 -0.9853 -0.1515
 3519SOL    HW110692   1.402   2.418   1.167  0.4109 -0.7422 -1.2337
 3519SOL    HW210693   1.543   2.446   1.215 -0.3578 -2.0970  2.1561
 3520SOL     OW10694   4.978   2.464   2.005 -0.2366 -0.4213 -0.4707
 3520SOL    HW110695   5.038   2.397   1.972 -0.5981 -0.9026 -0.1714
 3520SOL    HW210696   4.897   2.449   1.956 -0.2845 -0.1385 -0.4749
 3521SOL     OW10697   2.626   2.830   3.260 -0.7282  0.0638 -0.5853
 3521SOL    HW110698   2.570   2.835   3.182 -0.4040  2.5389 -0.7395
 3521SOL    HW210699   2.565   2.822   3.333 -1.1467 -0.0197 -0.9416
 3522SOL     OW10700   3.464   1.716   4.838 -0.5366 -0.2707 -0.3656
 3522SOL    HW110701   3.535   1.702   4.900 -0.5388 -0.5408 -0.4215
 3522SOL    HW210702   3.486   1.660   4.763  0.4299  1.4119 -1.4069
 3523SOL     OW10703   1.342   3.030   2.871  0.1343 -0.3207  0.6132
 3523SOL    HW110704   1.349   3.085   2.793 -1.1927 -1.0591 -0.0814
 3523SOL    HW210705   1.340   3.091   2.944  0.2985  0.4571 -0.0207
 3524SOL     OW10706   4.803   0.328   0.470 -0.8848 -0.1207 -0.2450
 3524SOL    HW110707   4.743   0.338   0.396 -1.9792 -1.7500  0.3676
 3524SOL    HW210708   4.871   0.393   0.455 -1.0560 -0.4275 -2.7060
 3525SOL     OW10709   1.725   3.778   1.320 -0.2563  0.3251  0.4240
 3525SOL    HW110710   1.701   3.744   1.406 -1.9770 -1.1390 -0.5727
 3525SOL    HW210711   1.642   3.779   1.271  0.3546  2.7319 -0.7173
 3526SOL     OW10712   2.264   3.633   4.733 -0.3122 -0.3423 -0.0391
 3526SOL    HW110713   2.331   3.564   4.739 -0.8684 -1.1394 -2.0324
 3526SOL    HW210714   2.202   3.601   4.667 -0.2099  2.3427 -1.6170
 3527SOL     OW10715   4.975   2.758   1.650  0.0739 -0.0448  0.5930
 3527SOL    HW110716   4.898   2.811   1.630 -0.3357 -0.7530  0.2748
 3527SOL    HW210717   5.049   2.814   1.627 -0.3440  0.5863  0.7633
 3528SOL     OW10718   1.673   2.999   1.023 -0.2187  0.3723 -0.1073
 3528SOL    HW110719   1.738   3.056   1.065 -0.3390  1.1563 -0.9536
 3528SOL    HW210720   1.602   3.058   0.998 -0.7261 -0.2907 -0.2638
 3529SOL     OW10721   4.993   4.717   2.295 -0.2864  0.3700  0.6182
 3529SOL    HW110722   4.954   4.744   2.378 -2.0994 -1.4049  0.4205
 3529SOL    HW210723   4.984   4.622   2.293 -0.9158  0.3908 -1.8780
 3530SOL     OW10724   4.660   0.559   4.861 -0.4045  0.2507  0.0463
 3530SOL    HW110725   4.616   0.476   4.840 -3.0291  0.6490  3.1659
 3530SOL    HW210726   4.742   0.532   4.902 -1.1536 -0.8588  0.8952
 3531SOL     OW10727   0.470   4.795   4.092 -0.6861 -0.4132  0.3212
 3531SOL    HW110728   0.440   4.765   4.177 -3.1239 -0.6305 -0.5530
 3531SOL    HW210729   0.477   4.715   4.039  1.8253 -0.4136  0.5371
 3532SOL     OW10730   4.634   1.655   3.574  0.1926  0.3003  0.0602
 3532SOL    HW110731   4.687   1.697   3.642 -0.0806  0.5742  0.1078
 3532SOL    HW210732   4.690   1.585   3.540  0.6129  0.6280  0.0604
 3533SOL     OW10733   0.189   4.979   3.159  0.0073 -0.2151 -0.1083
 3533SOL    HW110734   0.134   4.975   3.236 -1.3727  0.9179 -0.9980
 3533SOL    HW210735   0.202   4.887   3.135 -0.5649 -0.5350  0.7569
 3534SOL     OW10736   4.272   3.248   2.378 -0.2636  0.4569 -0.0528
 3534SOL    HW110737   4.299   3.156   2.383  0.7373  0.7296 -0.2689
 3534SOL    HW210738   4.177   3.244   2.375 -0.5338 -0.4620  3.6519
 3535SOL     OW10739   3.859   2.678   3.054  0.2214 -0.5451  0.1627
 3535SOL    HW110740   3.883   2.594   3.015 -0.8667 -1.4371  1.3758
 3535SOL    HW210741   3.846   2.660   3.146  2.1802  1.4264  0.9288
 3536SOL     OW10742   2.187   2.093   3.183  0.1258  0.5714 -0.9495
 3536SOL    HW110743   2.233   2.020   3.142 -0.8292 -0.9651  0.5464
 3536SOL    HW210744   2.188   2.072   3.277 -2.8051  0.8659 -0.7549
 3537SOL     OW10745   1.580   3.152   3.256 -0.4483  0.1721 -0.6225
 3537SOL    HW110746   1.646   3.165   3.188  0.9126  0.9681  0.7853
 3537SOL    HW210747   1.516   3.222   3.242  0.8306  1.5109  0.0416
 3538SOL     OW10748   3.092   4.053   2.186 -0.0340 -0.2061 -0.6386
 3538SOL    HW110749   3.006   4.014   2.171  1.7514 -3.5070 -3.8330
 3538SOL    HW210750   3.134   3.996   2.249  1.2448 -1.3129 -2.3983
 3539SOL     OW10751   2.541   2.408   2.021  0.2740  0.5863 -0.0361
 3539SOL    HW110752   2.462   2.426   2.072  0.2466 -0.2471  0.2390
 3539SOL    HW210753   2.547   2.480   1.959  0.4288  1.7593  1.2940
 3540SOL     OW10754   0.759   0.145   2.457  0.3990 -0.6765 -0.0809
 3540SOL    HW110755   0.788   0.235   2.443  3.4737 -0.9974  3.0490
 3540SOL    HW210756   0.695   0.151   2.528  0.2142 -0.9578 -0.2201
 3541SOL     OW10757   4.475   4.059   1.793  0.3236 -0.4951 -0.3719
 3541SOL    HW110758   4.504   4.101   1.874 -0.7752  0.2619 -0.3466
 3541SOL    HW210759   4.492   4.124   1.725 -0.3681 -0.4307 -0.4912
 3542SOL     OW10760   2.390   4.439   4.286  0.5100 -0.4860 -0.0330
 3542SOL    HW110761   2.373   4.347   4.266  0.2076 -0.5414  0.4470
 3542SOL    HW210762   2.402   4.440   4.381  0.3637 -0.0031 -0.0187
 3543SOL     OW10763   1.473   3.751   3.201  0.1366  0.0650 -0.7015
 3543SOL    HW110764   1.406   3.803   3.244 -0.8738 -1.3646 -0.4805
 3543SOL    HW210765   1.505   3.807   3.129  0.1654  1.5353  0.4166
 3544SOL     OW10766   2.890   4.406   0.604  0.3149  0.0828 -0.7313
 3544SOL    HW110767   2.957   4.473   0.590 -1.1833  1.4217 -1.8238
 3544SOL    HW210768   2.807   4.449   0.583 -0.8819 -1.6384  0.1536
 3545SOL     OW10769   0.814   3.647   4.654 -0.1018 -0.7963  0.2282
 3545SOL    HW110770   0.800   3.615   4.743 -0.7122 -0.8444  0.1157
 3545SOL    HW210771   0.890   3.705   4.661 -1.8020  1.4269  1.3311
 3546SOL     OW10772   0.753   1.108   2.211  0.1167 -0.1156  0.3013
 3546SOL    HW110773   0.668   1.077   2.180  1.0425 -1.6802 -0.8169
 3546SOL    HW210774   0.794   1.149   2.135  1.0768 -0.9916  0.3264
 3547SOL     OW10775   4.971   1.680   0.842  0.3584  0.6389  0.0403
 3547SOL    HW110776   5.063   1.670   0.818  0.4486  2.2697 -0.3767
 3547SOL    HW210777   4.958   1.618   0.914  1.8043  0.4574  0.1675
 3548SOL     OW10778   2.152   2.506   3.040  0.2105 -0.0594  0.7463
 3548SOL    HW110779   2.166   2.595   3.071 -1.6215  0.2564  0.7380
 3548SOL    HW210780   2.105   2.463   3.112 -1.3676 -0.1941 -0.3169
 3549SOL     OW10781   0.490   1.783   0.053 -0.1134 -0.1335 -0.5202
 3549SOL    HW110782   0.583   1.786   0.030 -0.2989 -0.1546 -1.3105
 3549SOL    HW210783   0.455   1.715  -0.004 -0.7852  0.4882 -0.8539
 3550SOL     OW10784   0.475   3.354   1.068 -0.1499 -0.5165 -0.2967
 3550SOL    HW110785   0.562   3.390   1.082 -0.1731 -0.6964  0.3450
 3550SOL    HW210786   0.480   3.312   0.982  0.4166 -0.5998 -0.2252
 3551SOL     OW10787   4.245   0.739   4.588 -0.2327 -0.4388  0.3770
 3551SOL    HW110788   4.192   0.811   4.622 -0.5606 -0.3719 -0.2574
 3551SOL    HW210789   4.315   0.727   4.652  0.3158  1.0057  0.0699
 3552SOL     OW10790   0.786   3.052   4.399 -0.3547 -0.2387 -0.6285
 3552SOL    HW110791   0.830   3.122   4.351  0.3656  0.9020  1.5711
 3552SOL    HW210792   0.718   3.096   4.449 -0.8624 -1.3323 -0.3293
 3553SOL     OW10793   1.702   0.091   3.285 -0.0857 -0.7694 -0.5528
 3553SOL    HW110794   1.742   0.004   3.274 -1.3970 -1.5335  0.3847
 3553SOL    HW210795   1.635   0.078   3.352  0.2658  1.1785  0.2358
 3554SOL     OW10796   0.013   0.497   0.761  0.2259 -0.4276  0.2004
 3554SOL    HW110797  -0.021   0.485   0.850  0.7297 -2.2156  0.1898
 3554SOL    HW210798   0.075   0.569   0.769 -0.0836 -0.2532  1.2046
 3555SOL     OW10799   0.555   4.396   4.548  0.3923 -0.0896 -0.2623
 3555SOL    HW110800   0.528   4.361   4.633 -0.7358  0.5100 -0.3516
 3555SOL    HW210801   0.541   4.491   4.555 -2.6480 -0.2522 -2.0541
 3556SOL     OW10802   1.426   1.809   0.455  0.3635 -0.4631  0.0026
 3556SOL    HW110803   1.359   1.773   0.396  0.3957 -1.0529  0.3184
 3556SOL    HW210804   1.508   1.800   0.407  0.2207  0.3459 -0.4241
 3557SOL     OW10805   4.787   3.895   4.324 -0.1034 -0.3518 -0.4017
 3557SOL    HW110806   4.790   3.893   4.228  1.7278  1.8414 -0.4678
 3557SOL    HW210807   4.764   3.985   4.345 -0.8488 -0.8998  1.2608
 3558SOL     OW10808   4.444   4.123   4.767 -0.3029 -0.6008  0.5567
 3558SOL    HW110809   4.472   4.058   4.702 -0.1690 -2.1898  2.1568
 3558SOL    HW210810   4.501   4.199   4.750  0.1562 -1.2097 -0.7644
 3559SOL     OW10811   3.522   4.801   2.736  0.1186 -0.5066  0.0978
 3559SOL    HW110812   3.595   4.740   2.723  1.5885  1.3918 -1.1784
 3559SOL    HW210813   3.451   4.766   2.682 -0.4861 -3.0654  2.3078
 3560SOL     OW10814   1.070   2.950   0.089  0.8470  0.4008  0.6557
 3560SOL    HW110815   1.158   2.921   0.064 -0.1159 -1.7205 -0.4849
 3560SOL    HW210816   1.049   3.018   0.025  0.5327 -1.2019 -1.0245
 3561SOL     OW10817   1.458   1.482   3.369 -0.2789 -0.3567 -0.2400
 3561SOL    HW110818   1.504   1.529   3.439 -0.4276 -1.2776  0.4890
 3561SOL    HW210819   1.523   1.474   3.299 -0.4243  1.4528 -0.6523
 3562SOL     OW10820   1.546   4.689   4.143 -0.4629 -0.1980  0.4045
 3562SOL    HW110821   1.585   4.702   4.056 -0.5161 -0.2311  0.3754
 3562SOL    HW210822   1.597   4.617   4.181  0.3643  0.6324  0.8943
 3563SOL     OW10823   0.605   2.941   3.466  0.3844 -0.3689  0.9425
 3563SOL    HW110824   0.635   2.942   3.557  0.5655 -0.0541  0.8806
 3563SOL    HW210825   0.607   3.033   3.439  0.9020 -0.5205  0.4357
 3564SOL     OW10826   0.813   2.262   1.811 -0.8041 -0.2037  0.0090
 3564SOL    HW110827   0.868   2.285   1.887 -0.9185  0.8156 -0.2174
 3564SOL    HW210828   0.869   2.278   1.735 -0.2887 -2.2868 -0.1275
 3565SOL     OW10829   0.796   3.094   2.702 -0.7495  0.2750 -0.4708
 3565SOL    HW110830   0.791   3.024   2.637  0.8028 -0.2957 -0.0142
 3565SOL    HW210831   0.886   3.126   2.696 -1.3029  1.9423 -0.3447
 3566SOL     OW10832   3.575   4.251   1.991 -0.1956 -0.3831 -0.3184
 3566SOL    HW110833   3.536   4.339   1.996 -1.1101 -0.8270  1.1762
 3566SOL    HW210834   3.647   4.254   2.053 -0.7532 -0.9128  0.3747
 3567SOL     OW10835   3.639   4.010   4.129 -0.0092 -0.3787 -0.7090
 3567SOL    HW110836   3.571   3.990   4.193 -0.0740  0.9126 -0.3411
 3567SOL    HW210837   3.616   4.097   4.097 -0.1572 -1.1273 -2.7512
 3568SOL     OW10838   2.078   1.412   2.552 -0.1931 -0.0032  0.1474
 3568SOL    HW110839   2.056   1.496   2.592  0.6793  0.0890  0.4525
 3568SOL    HW210840   1.998   1.360   2.558 -0.8968  0.9843 -0.5214
 3569SOL     OW10841   2.427   4.860   0.782  0.3447 -0.1920 -0.0041
 3569SOL    HW110842   2.437   4.850   0.687  0.7451 -4.0328  0.3051
 3569SOL    HW210843   2.332   4.853   0.796  0.3596 -0.5668 -0.0697
 3570SOL     OW10844   1.331   2.747   3.458  0.1679  0.0859 -0.1243
 3570SOL    HW110845   1.345   2.712   3.370 -1.2389  1.7635 -1.0812
 3570SOL    HW210846   1.415   2.785   3.483  0.3683  0.2902 -1.0836
 3571SOL     OW10847   0.128   4.486   0.643 -0.1540 -0.3718  0.3586
 3571SOL    HW110848   0.036   4.464   0.636 -0.2589  0.2580 -0.3735
 3571SOL    HW210849   0.141   4.555   0.578  1.1383 -1.4075 -0.5366
 3572SOL     OW10850   0.496   4.496   2.947 -0.4514  0.1597  0.1037
 3572SOL    HW110851   0.520   4.433   2.878 -0.2613  1.1458 -0.7619
 3572SOL    HW210852   0.447   4.564   2.901 -0.1462  0.9430  0.9137
 3573SOL     OW10853   0.130   3.876   0.561  0.4926 -0.0196 -0.2141
 3573SOL    HW110854   0.111   3.854   0.652  0.9836 -1.7023 -0.4748
 3573SOL    HW210855   0.205   3.935   0.565 -0.1874  0.8359  0.4928
 3574SOL     OW10856   0.673   1.041   3.793  0.2324  0.0247  0.4259
 3574SOL    HW110857   0.764   1.011   3.791  0.9313  1.9841  0.8410
 3574SOL    HW210858   0.637   1.001   3.872  1.0195 -0.0482  0.7636
 3575SOL     OW10859   0.163   3.214   3.507 -0.0446 -0.2804 -0.3814
 3575SOL    HW110860   0.067   3.211   3.515 -0.0459  0.6387  0.0947
 3575SOL    HW210861   0.191   3.123   3.521 -0.8523 -0.5745 -0.6193
 3576SOL     OW10862   4.369   0.740   2.694  0.1816 -0.0875 -0.0258
 3576SOL    HW110863   4.438   0.795   2.731 -0.8961  1.0808  0.2984
 3576SOL    HW210864   4.322   0.707   2.771  0.4437 -0.9900 -0.2417
 3577SOL     OW10865   3.840   3.800   1.981  0.1877  0.2632 -0.0408
 3577SOL    HW110866   3.858   3.746   2.058 -2.5088 -0.7858 -0.0225
 3577SOL    HW210867   3.884   3.755   1.909 -0.6049 -1.0752  0.2687
 3578SOL     OW10868   2.640   1.005   3.648 -0.1413 -0.2391  0.1469
 3578SOL    HW110869   2.719   0.990   3.698  0.3035 -1.0015 -0.7575
 3578SOL    HW210870   2.569   1.001   3.712  0.3520 -1.7943  0.6374
 3579SOL     OW10871   4.076   2.110   1.567 -0.2991  0.3276  0.0436
 3579SOL    HW110872   4.049   2.186   1.617 -0.1216  1.5749 -1.6808
 3579SOL    HW210873   4.104   2.145   1.483  1.6681 -1.4482 -0.1162
 3580SOL     OW10874   3.583   0.396   1.349 -0.0713 -0.2341  0.1202
 3580SOL    HW110875   3.557   0.356   1.266  1.4174  0.7997 -0.8992
 3580SOL    HW210876   3.678   0.405   1.343 -0.1952  2.4664  0.6811
 3581SOL     OW10877   4.837   3.384   3.241 -0.1461  0.2103 -0.7621
 3581SOL    HW110878   4.927   3.373   3.209  0.2791 -2.2117  1.0154
 3581SOL    HW210879   4.783   3.374   3.162  1.0422 -1.0584 -1.4715
 3582SOL     OW10880   4.410   2.474   1.227  0.2524 -0.1561 -1.0511
 3582SOL    HW110881   4.333   2.506   1.180 -0.4937 -0.2241  0.0713
 3582SOL    HW210882   4.429   2.389   1.186 -0.0180  0.0490 -1.6144
 3583SOL     OW10883   0.393   3.325   0.266 -0.1336 -0.0002 -0.5094
 3583SOL    HW110884   0.341   3.404   0.278  2.3185  1.3130  4.0516
 3583SOL    HW210885   0.337   3.253   0.295 -0.4395  0.9745  1.4162
 3584SOL     OW10886   4.884   3.230   3.470  0.5376  0.2666 -0.4431
 3584SOL    HW110887   4.889   3.299   3.404 -0.2275  0.6225 -0.1456
 3584SOL    HW210888   4.853   3.153   3.421 -0.8960  0.7575 -0.3742
 3585SOL     OW10889   1.209   2.917   4.480 -0.7216 -0.0155  0.4285
 3585SOL    HW110890   1.162   2.837   4.501  0.3375 -0.4930  1.0425
 3585SOL    HW210891   1.297   2.888   4.454 -0.6870  0.8658 -0.5371
 3586SOL     OW10892   2.225   4.165   3.664  0.0657  0.0803  0.1018
 3586SOL    HW110893   2.155   4.104   3.641  0.8774 -0.8990  0.1325
 3586SOL    HW210894   2.279   4.117   3.726  0.6672  0.8844  0.2183
 3587SOL     OW10895   0.478   3.018   1.884  0.0408 -0.2828  0.2428
 3587SOL    HW110896   0.400   3.028   1.829  1.2411 -0.6012 -1.6041
 3587SOL    HW210897   0.475   3.093   1.944 -0.9569  0.4993 -0.7354
 3588SOL     OW10898   1.348   3.342   4.922 -0.1939  0.2496  0.0932
 3588SOL    HW110899   1.256   3.339   4.944 -0.2882  0.4686 -0.2563
 3588SOL    HW210900   1.358   3.278   4.851  0.3627 -1.4589  1.6193
 3589SOL     OW10901   1.085   0.645   1.476  0.2345 -0.2210 -0.5832
 3589SOL    HW110902   1.171   0.679   1.455 -0.4202  3.6991  2.0154
 3589SOL    HW210903   1.029   0.675   1.405  0.4637  0.0987 -0.6306
 3590SOL     OW10904   1.067   0.833   3.143  0.1852  0.0055 -0.3084
 3590SOL    HW110905   1.145   0.871   3.184  2.2222 -1.5144 -2.4536
 3590SOL    HW210906   1.040   0.763   3.203  0.5713  0.4618  0.4048
 3591SOL     OW10907   2.522   1.963   2.810  0.2026  0.3658 -0.2547
 3591SOL    HW110908   2.522   2.058   2.823  0.5077  0.4842 -1.0536
 3591SOL    HW210909   2.509   1.952   2.716  2.3541 -0.3227 -0.5198
 3592SOL     OW10910   4.753   2.566   2.159 -0.7020  0.0725 -0.3348
 3592SOL    HW110911   4.809   2.520   2.097 -1.2266 -0.7838 -0.2003
 3592SOL    HW210912   4.692   2.499   2.190 -0.6513  0.5556  0.8682
 3593SOL     OW10913   0.429   3.675   1.490  0.2923 -0.8152 -0.5829
 3593SOL    HW110914   0.386   3.589   1.492  0.8248 -1.0703  0.5745
 3593SOL    HW210915   0.366   3.734   1.532  0.0722 -0.7032 -1.0649
 3594SOL     OW10916   1.822   1.835   1.490 -0.1199  0.4847  0.4660
 3594SOL    HW110917   1.852   1.814   1.578 -0.6633 -1.3851  0.2536
 3594SOL    HW210918   1.727   1.819   1.492 -0.0922  0.1059 -0.5222
 3595SOL     OW10919   2.633   0.250   0.863 -0.2892  0.3073  1.0468
 3595SOL    HW110920   2.668   0.164   0.839 -0.9647 -0.0261  1.2338
 3595SOL    HW210921   2.631   0.299   0.781  1.7161  0.7494  1.2144
 3596SOL     OW10922   0.593   4.509   3.604  0.0456 -0.4078  0.1856
 3596SOL    HW110923   0.525   4.542   3.545  0.6173  1.0657  0.3066
 3596SOL    HW210924   0.665   4.484   3.546  0.5494  0.8987  0.2245
 3597SOL     OW10925   1.989   4.872   1.957 -0.0852 -0.1473  0.5596
 3597SOL    HW110926   1.925   4.910   1.897 -1.2565 -1.1069  1.1621
 3597SOL    HW210927   2.036   4.947   1.994 -2.4971  0.7914  1.8992
 3598SOL     OW10928   4.693   1.254   3.064 -0.3447 -0.1245 -0.8494
 3598SOL    HW110929   4.728   1.239   2.976  1.8092 -1.3380  0.1690
 3598SOL    HW210930   4.720   1.343   3.086 -1.0541  0.2538 -1.4564
 3599SOL     OW10931   4.589   2.002   0.162  1.1820  0.1246 -0.4529
 3599SOL    HW110932   4.637   2.055   0.099  2.8718 -0.0668  0.6170
 3599SOL    HW210933   4.653   1.979   0.229 -0.5852  0.5562  1.5255
 3600SOL     OW10934   4.730   0.155   4.770  0.5718  1.1732  0.6428
 3600SOL    HW110935   4.720   0.172   4.677  0.9507  1.8090  0.7111
 3600SOL    HW210936   4.685   0.228   4.813 -1.1715 -0.0576  0.9753
 3601SOL     OW10937   2.773   2.354   4.651  0.1823 -0.7451  0.3193
 3601SOL    HW110938   2.738   2.427   4.600 -0.0383 -1.6154 -0.8257
 3601SOL    HW210939   2.718   2.349   4.728  0.0002  0.0952  0.2516
 3602SOL     OW10940   4.044   1.141   2.127  0.8737  0.0994  0.2030
 3602SOL    HW110941   4.122   1.088   2.109  0.2360 -0.8582  0.2162
 3602SOL    HW210942   3.998   1.145   2.044  0.9748  0.7516  0.1714
 3603SOL     OW10943   0.728   3.808   3.777  0.2295  0.0853 -0.4289
 3603SOL    HW110944   0.790   3.877   3.801 -0.4949  1.0850 -1.3285
 3603SOL    HW210945   0.746   3.789   3.685 -0.0829 -0.3835 -0.3988
 3604SOL     OW10946   2.567   0.300   2.011  0.0307  0.7991 -0.5692
 3604SOL    HW110947   2.548   0.220   1.961  1.5281  0.6794 -1.0043
 3604SOL    HW210948   2.540   0.371   1.954  0.8382  0.6338 -1.1874
 3605SOL     OW10949   4.325   3.716   3.791 -0.0771  0.0979  0.5261
 3605SOL    HW110950   4.409   3.697   3.750  0.2303  2.3367 -0.0145
 3605SOL    HW210951   4.271   3.752   3.720 -0.7972  0.5839  1.3001
 3606SOL     OW10952   1.628   4.385   3.574  0.1667  0.3706  0.1065
 3606SOL    HW110953   1.583   4.320   3.627  0.8224  0.6315  1.0091
 3606SOL    HW210954   1.716   4.391   3.613  0.6407  0.6208 -0.9645
 3607SOL     OW10955   2.327   2.317   1.453  0.2406  0.4578  0.5791
 3607SOL    HW110956   2.298   2.226   1.444  0.2397  0.3438  1.5596
 3607SOL    HW210957   2.266   2.368   1.400  0.3075 -0.1214 -0.0647
 3608SOL     OW10958   2.743   1.834   0.367  1.0121  0.3082  0.4780
 3608SOL    HW110959   2.776   1.842   0.457  1.4382 -0.1548  0.3689
 3608SOL    HW210960   2.667   1.892   0.364  0.9707  0.2990  1.1483
 3609SOL     OW10961   2.289   2.992   4.713  0.1249  0.3227 -0.0182
 3609SOL    HW110962   2.245   3.077   4.710  0.4902  0.4954 -0.6737
 3609SOL    HW210963   2.370   3.008   4.762 -0.6463 -0.0595  1.4464
 3610SOL     OW10964   4.769   1.706   1.747 -0.1115 -0.1589  0.2181
 3610SOL    HW110965   4.681   1.668   1.749 -0.1615 -0.0526  0.0657
 3610SOL    HW210966   4.827   1.631   1.760 -0.2441 -0.1355  0.9798
 3611SOL     OW10967   1.112   1.025   4.015 -0.5493  0.1386  0.3070
 3611SOL    HW110968   1.123   1.048   4.107 -0.7446  1.3128  0.0508
 3611SOL    HW210969   1.180   1.074   3.970  0.4034 -1.4562 -0.0520
 3612SOL     OW10970   4.652   3.520   4.654 -0.1352 -0.6701  0.1051
 3612SOL    HW110971   4.669   3.457   4.724 -1.8369 -0.8667  0.3778
 3612SOL    HW210972   4.724   3.583   4.661  2.9594 -3.6513 -1.5857
 3613SOL     OW10973   3.325   4.878   3.720 -0.2374  0.4200  0.3138
 3613SOL    HW110974   3.365   4.841   3.642  3.5802  1.0710  1.7616
 3613SOL    HW210975   3.387   4.944   3.750 -1.4009  0.0306  4.0563
 3614SOL     OW10976   3.830   2.113   0.140  0.4751  1.2014  0.3979
 3614SOL    HW110977   3.818   2.048   0.209 -0.1331 -0.1944 -0.9455
 3614SOL    HW210978   3.819   2.063   0.059  2.4391  2.5185 -0.7501
 3615SOL     OW10979   1.872   1.669   3.054 -0.1349 -0.3911  0.0670
 3615SOL    HW110980   1.905   1.596   3.002  2.3876  0.8987 -0.2730
 3615SOL    HW210981   1.878   1.745   2.996  1.2951  0.8034  1.6696
 3616SOL     OW10982   1.036   3.156   4.875 -0.3395 -0.0870 -0.7366
 3616SOL    HW110983   1.060   3.111   4.794 -0.1675 -1.3252 -0.0358
 3616SOL    HW210984   1.028   3.248   4.851 -0.3765 -0.4465 -2.1671
 3617SOL     OW10985   0.789   0.764   2.142 -0.2666  0.1651 -0.4523
 3617SOL    HW110986   0.845   0.740   2.216 -3.1159 -0.5968  1.5979
 3617SOL    HW210987   0.716   0.811   2.181 -2.2056 -0.7902 -2.6920
 3618SOL     OW10988   2.519   1.694   1.325  0.4044 -0.0756  0.0194
 3618SOL    HW110989   2.559   1.732   1.247 -1.6354  1.8785 -0.2013
 3618SOL    HW210990   2.452   1.758   1.351 -0.3547 -1.6205  2.1934
 3619SOL     OW10991   1.338   3.269   4.333 -0.1705  0.0697  0.0196
 3619SOL    HW110992   1.318   3.219   4.254  1.5802 -0.9843  0.1950
 3619SOL    HW210993   1.313   3.359   4.312 -1.1276 -0.4487 -1.1734
 3620SOL     OW10994   0.570   0.184   1.902  0.3252 -0.0821 -0.6103
 3620SOL    HW110995   0.495   0.234   1.933  0.4241 -0.1015 -0.3313
 3620SOL    HW210996   0.559   0.098   1.942 -0.2027 -0.4997 -1.6288
 3621SOL     OW10997   3.585   0.441   2.341 -0.0894 -0.4697 -0.2080
 3621SOL    HW110998   3.523   0.416   2.272  1.8407 -1.6222 -1.6318
 3621SOL    HW210999   3.540   0.420   2.423 -1.4038 -1.7169 -1.2021
 3622SOL     OW11000   4.335   2.034   2.302 -0.2369  0.0723 -0.1612
 3622SOL    HW111001   4.367   1.944   2.296 -0.2788 -0.2528  3.0089
 3622SOL    HW211002   4.240   2.027   2.289 -0.2615 -0.3648  0.2505
 3623SOL     OW11003   4.963   2.590   0.459 -0.3481 -0.2408  0.0013
 3623SOL    HW111004   4.879   2.558   0.494 -0.5307  0.4564  0.2261
 3623SOL    HW211005   4.938   2.650   0.389 -0.0730  0.6551  0.6547
 3624SOL     OW11006   1.291   4.111   4.710 -0.0483 -0.1702  0.2201
 3624SOL    HW111007   1.340   4.180   4.755 -2.1593  1.1280  0.6507
 3624SOL    HW211008   1.219   4.157   4.667 -1.1596 -2.0545 -0.0359
 3625SOL     OW11009   3.496   1.896   2.017  0.0963  0.1092 -0.2941
 3625SOL    HW111010   3.585   1.891   2.050 -0.0956  0.0560  0.2223
 3625SOL    HW211011   3.502   1.869   1.925  0.3291 -1.6849  0.2265
 3626SOL     OW11012   3.714   4.455   0.264  0.3719 -0.3387 -0.2883
 3626SOL    HW111013   3.805   4.483   0.248  0.7460 -1.2407  0.2399
 3626SOL    HW211014   3.684   4.511   0.336 -0.1084  1.1943 -1.6004
 3627SOL     OW11015   3.568   0.753   1.829 -0.0368  0.0104 -0.0575
 3627SOL    HW111016   3.530   0.732   1.915  0.0448 -1.4364 -0.3483
 3627SOL    HW211017   3.523   0.694   1.768  1.0554 -0.1362 -0.7530
 3628SOL     OW11018   2.253   3.212   0.576  0.3155 -0.3093 -0.1462
 3628SOL    HW111019   2.187   3.146   0.596 -0.7362  0.3747 -1.2567
 3628SOL    HW211020   2.219   3.259   0.500  1.1524  1.3458  0.4469
 3629SOL     OW11021   2.140   2.967   0.339  0.1580 -0.8962  0.0229
 3629SOL    HW111022   2.127   2.962   0.434  2.3168  0.5047  0.4595
 3629SOL    HW211023   2.108   2.883   0.306 -3.4028 -0.3453  1.5623
 3630SOL     OW11024   2.843   0.881   3.870 -0.3989 -0.5851 -0.2698
 3630SOL    HW111025   2.767   0.827   3.847 -0.0496 -0.2308 -2.5260
 3630SOL    HW211026   2.914   0.819   3.882 -0.4041 -0.7694 -1.1019
 3631SOL     OW11027   1.139   1.556   0.671  0.1696  0.0932 -0.2030
 3631SOL    HW111028   1.124   1.464   0.649 -1.4129 -0.2575  1.9881
 3631SOL    HW211029   1.098   1.605   0.600 -1.4026 -0.9297 -0.0476
 3632SOL     OW11030   4.160   4.524   0.845  0.3813  0.3606 -0.0488
 3632SOL    HW111031   4.213   4.490   0.917  0.9070  0.2910 -0.4636
 3632SOL    HW211032   4.189   4.615   0.835  2.7689 -0.5019 -2.3352
 3633SOL     OW11033   3.080   3.522   0.509  0.0711 -0.4964  0.4888
 3633SOL    HW111034   2.994   3.527   0.468 -0.2234 -2.8387  0.7087
 3633SOL    HW211035   3.068   3.563   0.595 -0.9881 -1.2811  0.7327
 3634SOL     OW11036   3.984   1.089   1.535  0.4412 -0.4597  0.4171
 3634SOL    HW111037   4.073   1.055   1.521  0.8483  0.7442 -0.0448
 3634SOL    HW211038   3.964   1.138   1.456  0.0966  0.8200  1.2629
 3635SOL     OW11039   4.457   1.194   1.961 -0.0471 -0.2753  0.0723
 3635SOL    HW111040   4.448   1.119   1.903  0.0897 -0.5870  0.4489
 3635SOL    HW211041   4.424   1.163   2.045 -1.6071  0.6109 -0.1794
 3636SOL     OW11042   0.913   3.946   1.519  0.1881 -0.1150  0.1460
 3636SOL    HW111043   0.962   3.942   1.437 -1.3132  0.4630 -0.8340
 3636SOL    HW211044   0.883   4.037   1.524 -1.1764 -0.5578  0.4318
 3637SOL     OW11045   0.603   3.447   0.376  0.7817 -0.3339  0.2117
 3637SOL    HW111046   0.531   3.394   0.340 -0.6605  0.8182  1.2719
 3637SOL    HW211047   0.575   3.469   0.464  1.2057  2.3167 -0.2288
 3638SOL     OW11048   0.458   4.749   2.836 -0.3640 -0.3989  0.1387
 3638SOL    HW111049   0.502   4.791   2.762  0.9218 -0.0404  1.0690
 3638SOL    HW211050   0.365   4.753   2.814 -0.0767  0.5392 -1.0258
 3639SOL     OW11051   1.476   4.333   4.467  0.6238 -0.5285  0.3657
 3639SOL    HW111052   1.443   4.256   4.514  2.3381 -0.4747  1.7648
 3639SOL    HW211053   1.456   4.407   4.524 -1.7024  0.2563 -1.3137
 3640SOL     OW11054   2.432   4.338   2.207 -0.7854  0.5794  0.1566
 3640SOL    HW111055   2.444   4.316   2.115 -0.9853  2.2459 -0.3138
 3640SOL    HW211056   2.426   4.434   2.208 -0.0320  0.6580  1.9939
 3641SOL     OW11057   0.332   2.448   3.473 -0.0978 -0.5195 -0.0114
 3641SOL    HW111058   0.428   2.441   3.471  0.2303  2.0285  1.7189
 3641SOL    HW211059   0.310   2.500   3.396 -0.1867 -1.6464 -0.7624
 3642SOL     OW11060   3.129   0.030   3.415 -0.1120 -0.0095 -0.5114
 3642SOL    HW111061   3.090   0.095   3.474 -1.6876 -0.6723 -0.7879
 3642SOL    HW211062   3.211   0.006   3.458 -0.2418  1.0114  0.3750
 3643SOL     OW11063   2.496   4.715   2.695  0.7468  0.0889 -0.1248
 3643SOL    HW111064   2.550   4.641   2.722  3.8883  1.6137 -1.7321
 3643SOL    HW211065   2.427   4.677   2.641  1.4465 -1.7852  0.2414
 3644SOL     OW11066   4.363   1.317   3.470 -0.1933 -0.1157 -0.3074
 3644SOL    HW111067   4.415   1.382   3.424 -0.2921 -0.0993 -0.3969
 3644SOL    HW211068   4.392   1.322   3.561  1.5408 -1.6297 -0.7201
 3645SOL     OW11069   1.015   0.539   2.606  0.4577 -0.4756 -0.0524
 3645SOL    HW111070   1.091   0.597   2.607 -0.5839  0.9559 -0.4934
 3645SOL    HW211071   1.022   0.488   2.686  1.0625  0.7498  0.6958
 3646SOL     OW11072   2.179   2.357   2.815  0.2112 -0.2061  0.2600
 3646SOL    HW111073   2.204   2.404   2.895 -1.8554 -1.5323  1.8030
 3646SOL    HW211074   2.084   2.346   2.823 -0.0708 -0.3284 -2.4534
 3647SOL     OW11075   2.883   3.296   0.449 -0.0788 -0.1323  0.0959
 3647SOL    HW111076   2.970   3.328   0.429 -0.0169 -0.3156  0.0728
 3647SOL    HW211077   2.883   3.205   0.418 -1.0588  0.5735 -2.2193
 3648SOL     OW11078   3.387   1.522   3.683 -0.4018  0.2825  0.0896
 3648SOL    HW111079   3.456   1.486   3.627 -1.1952 -0.0790 -0.6943
 3648SOL    HW211080   3.382   1.614   3.659  0.7260  0.6328  1.1360
 3649SOL     OW11081   3.735   1.984   3.936  0.0142 -0.0790  0.1582
 3649SOL    HW111082   3.817   2.022   3.903  0.5095 -0.9026  0.3938
 3649SOL    HW211083   3.745   1.983   4.031 -0.3195 -0.0738  0.1949
 3650SOL     OW11084   0.952   1.333   0.249 -0.9387  0.0081 -0.2749
 3650SOL    HW111085   0.946   1.395   0.323  0.8510 -1.9973  1.6906
 3650SOL    HW211086   0.862   1.303   0.236 -1.5455  1.6083 -0.0635
 3651SOL     OW11087   3.154   2.974   4.146 -0.1659 -0.1120  0.1288
 3651SOL    HW111088   3.068   2.955   4.185 -0.3014  0.0689 -0.0839
 3651SOL    HW211089   3.158   2.918   4.068  0.1237 -0.5051  0.4201
 3652SOL     OW11090   4.284   0.441   4.045  0.2711  1.1916 -0.1192
 3652SOL    HW111091   4.368   0.444   3.999  0.2647  0.1934 -0.2196
 3652SOL    HW211092   4.307   0.428   4.137  0.2295  1.0848 -0.1238
 3653SOL     OW11093   1.651   4.100  -0.011 -0.0352 -0.2461 -0.3143
 3653SOL    HW111094   1.732   4.068   0.029 -0.0918  0.0698  0.0662
 3653SOL    HW211095   1.582   4.071   0.048 -0.0638  0.8054  0.1951
 3654SOL     OW11096   0.522   1.515   4.015  0.2327 -0.1291  0.8226
 3654SOL    HW111097   0.591   1.530   4.080  1.5380 -0.2242 -0.4864
 3654SOL    HW211098   0.466   1.448   4.054  0.6559  0.2241  2.0749
 3655SOL     OW11099   2.304   4.158   1.172  0.2362 -0.0193 -0.2839
 3655SOL    HW111100   2.288   4.112   1.089 -0.4541  0.9524 -0.7048
 3655SOL    HW211101   2.385   4.207   1.157 -0.2774  0.7355 -0.6544
 3656SOL     OW11102   2.296   1.001   3.476  0.3279  0.7392 -0.5880
 3656SOL    HW111103   2.362   0.966   3.416  1.5675  1.2178  0.4555
 3656SOL    HW211104   2.220   0.944   3.464  1.0360 -0.0289 -1.5832
 3657SOL     OW11105   3.859   0.835   1.582 -0.0300 -0.0921 -0.1961
 3657SOL    HW111106   3.872   0.929   1.577 -2.3578  0.3372  0.7197
 3657SOL    HW211107   3.806   0.822   1.660  0.0065 -2.1530 -0.4561
 3658SOL     OW11108   2.548   0.235   0.226 -0.2087 -0.1689 -0.0856
 3658SOL    HW111109   2.575   0.261   0.315  1.2465 -1.0365 -0.2405
 3658SOL    HW211110   2.621   0.262   0.171 -1.4075  1.0170 -1.1728
 3659SOL     OW11111   0.819   1.379   0.794  0.0794 -0.3956 -0.0688
 3659SOL    HW111112   0.848   1.329   0.717 -1.3738 -1.4453  0.0320
 3659SOL    HW211113   0.860   1.334   0.868 -0.0822 -0.5612 -0.0811
 3660SOL     OW11114   4.215   4.905   2.157  0.0445 -0.0355  0.0050
 3660SOL    HW111115   4.306   4.926   2.180  0.3147 -1.3922  0.2494
 3660SOL    HW211116   4.166   4.922   2.237 -0.2218  2.2836 -0.5851
 3661SOL     OW11117   3.011   3.858   0.103  0.7027 -0.1332  0.5998
 3661SOL    HW111118   2.993   3.930   0.044  0.1721  0.4025  1.3926
 3661SOL    HW211119   2.959   3.785   0.069 -0.0316  0.3296  0.7040
 3662SOL     OW11120   4.090   0.539   0.846  0.1178 -0.2005  0.1467
 3662SOL    HW111121   4.160   0.488   0.805  0.1690 -0.5965  0.7192
 3662SOL    HW211122   4.136   0.601   0.902 -0.0028 -1.1281  1.3005
 3663SOL     OW11123   1.770   0.267   4.845 -0.0222  0.4142  0.1363
 3663SOL    HW111124   1.793   0.321   4.769  0.8095  0.8389  0.6647
 3663SOL    HW211125   1.700   0.315   4.888 -0.6205  0.0810 -0.4588
 3664SOL     OW11126   1.605   2.589   1.980 -0.0407  0.4511  0.2374
 3664SOL    HW111127   1.615   2.533   1.903  2.6275  0.3468  0.5946
 3664SOL    HW211128   1.622   2.531   2.055  1.5142  1.4214  0.6706
 3665SOL     OW11129   4.157   0.705   4.319 -0.1815 -0.4893  0.2309
 3665SOL    HW111130   4.133   0.796   4.305  0.9165 -0.3890 -1.2086
 3665SOL    HW211131   4.197   0.703   4.406  1.2212  0.7163 -0.3613
 3666SOL     OW11132   0.213   0.967   2.987 -0.1261 -0.0778 -0.2097
 3666SOL    HW111133   0.120   0.970   3.006 -0.0093  1.7238  0.2657
 3666SOL    HW211134   0.238   1.059   2.974  1.6155 -0.5038 -0.1384
 3667SOL     OW11135   0.163   4.115   3.301  0.4770 -0.8382  0.7187
 3667SOL    HW111136   0.068   4.106   3.313  0.5536 -0.5738  1.5817
 3667SOL    HW211137   0.199   4.111   3.390  1.4053 -2.3474  0.3086
 3668SOL     OW11138   2.810   1.705   1.233 -0.3957  0.2701 -0.3274
 3668SOL    HW111139   2.890   1.738   1.273 -0.2987 -1.4015  0.9726
 3668SOL    HW211140   2.819   1.728   1.140  1.1897  0.8523 -0.0682
 3669SOL     OW11141   1.330   3.204   4.666  0.0199  0.0922  0.2440
 3669SOL    HW111142   1.413   3.161   4.647 -0.3206  0.3122 -2.0944
 3669SOL    HW211143   1.314   3.260   4.589 -1.3278  1.5679  1.5211
 3670SOL     OW11144   3.888   2.063   2.931  0.4039 -0.1211 -0.2530
 3670SOL    HW111145   3.969   2.017   2.907 -0.0818 -2.1134  1.6337
 3670SOL    HW211146   3.915   2.127   2.997  0.7762  1.0457 -1.4813
 3671SOL     OW11147   2.285   0.928   4.960 -0.1992 -0.2661 -0.8278
 3671SOL    HW111148   2.225   1.001   4.975  1.2612  1.2298 -1.9910
 3671SOL    HW211149   2.358   0.966   4.913  0.6469 -2.4953 -1.4316
 3672SOL     OW11150   1.564   0.799   1.064  0.7517  1.0325  0.5600
 3672SOL    HW111151   1.604   0.842   1.139 -2.5271  2.7296  1.5109
 3672SOL    HW211152   1.543   0.869   1.003 -1.2424  0.3515  0.3919
 3673SOL     OW11153   4.585   3.493   2.485  0.2795 -0.3077 -0.1959
 3673SOL    HW111154   4.612   3.442   2.409 -1.9389 -2.2157  0.1921
 3673SOL    HW211155   4.540   3.569   2.448  1.4597  0.1621 -0.7481
 3674SOL     OW11156   1.156   1.684   1.903 -0.4940  0.1216 -0.3941
 3674SOL    HW111157   1.104   1.743   1.849 -0.8319 -1.7781 -2.3121
 3674SOL    HW211158   1.181   1.613   1.843 -1.1766 -2.3265  2.0350
 3675SOL     OW11159   4.208   0.384   0.613  0.2517  0.1447 -0.2270
 3675SOL    HW111160   4.271   0.426   0.554  1.6090 -0.9471  0.3696
 3675SOL    HW211161   4.259   0.366   0.693 -1.3581  1.0272  1.0756
 3676SOL     OW11162   2.148   2.456   1.291  0.5452  0.7259 -0.2901
 3676SOL    HW111163   2.110   2.456   1.203  1.0423 -3.1272 -0.6687
 3676SOL    HW211164   2.075   2.477   1.349 -0.8313 -0.8388 -1.3755
 3677SOL     OW11165   2.129   3.553   3.739  0.2465 -0.3038  0.1479
 3677SOL    HW111166   2.047   3.514   3.768 -0.0528  1.0746  1.2910
 3677SOL    HW211167   2.116   3.573   3.647 -0.9637  0.4876  0.4729
 3678SOL     OW11168   3.015   4.911   2.266 -0.0033 -0.0545  0.3725
 3678SOL    HW111169   3.051   4.870   2.188 -0.9383 -0.9315  0.3785
 3678SOL    HW211170   2.928   4.941   2.239 -0.2028 -0.0665  0.9772
 3679SOL     OW11171   1.203   3.523   0.890 -0.3795  0.0115  0.0307
 3679SOL    HW111172   1.265   3.455   0.864 -0.7200 -0.0920 -0.5214
 3679SOL    HW211173   1.126   3.509   0.834 -0.4957  0.7853 -0.0227
 3680SOL     OW11174   3.618   2.564   1.473  0.4984  0.1927 -0.2569
 3680SOL    HW111175   3.684   2.584   1.538 -0.5419  0.3594  0.7798
 3680SOL    HW211176   3.652   2.601   1.391  0.9874  1.6127  0.5709
 3681SOL     OW11177   0.532   3.807   3.999  0.2486  0.0325 -0.7992
 3681SOL    HW111178   0.559   3.887   4.042 -2.0191  2.4263 -3.4326
 3681SOL    HW211179   0.599   3.790   3.933  0.6843 -0.2184 -0.2980
 3682SOL     OW11180   3.986   1.057   3.137 -0.1572 -0.1154  0.0886
 3682SOL    HW111181   3.903   1.016   3.161 -1.8913  3.2920  0.5290
 3682SOL    HW211182   4.036   1.059   3.218 -0.0701 -1.2210  0.0711
 3683SOL     OW11183   4.731   0.698   3.063  0.0179 -0.4877  0.4092
 3683SOL    HW111184   4.765   0.774   3.017  2.1097 -0.0881  2.4029
 3683SOL    HW211185   4.743   0.625   3.002 -0.9675  0.5523 -1.0903
 3684SOL     OW11186   2.327   1.904   1.032  0.4274  0.1634  0.3329
 3684SOL    HW111187   2.255   1.841   1.025  0.1709  0.5589 -0.9075
 3684SOL    HW211188   2.361   1.911   0.943  1.9378  0.0870  0.8790
 3685SOL     OW11189   4.876   4.534   4.828  0.2250 -0.2253 -0.4486
 3685SOL    HW111190   4.886   4.628   4.837  2.2015 -0.5508  1.5082
 3685SOL    HW211191   4.932   4.496   4.896 -1.3356 -2.8072 -0.4371
 3686SOL     OW11192   4.606   0.179   1.121  0.0618  0.1992 -1.2399
 3686SOL    HW111193   4.559   0.098   1.103  0.7321 -0.5868  0.3598
 3686SOL    HW211194   4.547   0.230   1.177 -0.1461  0.6085 -1.8177
 3687SOL     OW11195   3.580   2.547   3.344  0.3880  0.5748  0.3775
 3687SOL    HW111196   3.558   2.474   3.285 -0.6365  0.8513  0.3933
 3687SOL    HW211197   3.574   2.509   3.432  0.8355  0.4348  0.3495
 3688SOL     OW11198   0.773   3.071   1.046  0.3702  0.1892  0.4949
 3688SOL    HW111199   0.710   2.999   1.038 -0.0342  0.6126 -0.1880
 3688SOL    HW211200   0.819   3.072   0.962 -1.3255  2.2782 -0.5124
 3689SOL     OW11201   3.253   3.070   1.957  0.2173  0.8322 -0.2894
 3689SOL    HW111202   3.303   2.996   1.990 -0.4410  0.9131  0.9381
 3689SOL    HW211203   3.288   3.085   1.869  1.1628 -0.1784 -0.1082
 3690SOL     OW11204   2.882   3.635   5.015 -0.5765  0.2844 -0.0046
 3690SOL    HW111205   2.797   3.591   5.019  0.1464 -1.0213  2.6411
 3690SOL    HW211206   2.935   3.580   4.958 -1.3641  1.0025 -1.5116
 3691SOL     OW11207   0.978   2.185   2.776 -0.0023 -0.6101  0.0147
 3691SOL    HW111208   0.893   2.172   2.818 -0.6223 -0.0422 -1.0344
 3691SOL    HW211209   0.990   2.106   2.724 -0.6336 -0.0081 -1.0701
 3692SOL     OW11210   1.565   2.229   2.690  0.0534  0.0815  0.5971
 3692SOL    HW111211   1.523   2.308   2.723 -0.4143 -0.7365  2.0762
 3692SOL    HW211212   1.514   2.205   2.612  0.6514  1.5967 -0.3016
 3693SOL     OW11213   1.354   4.807   2.193 -0.3833  0.7168  1.0746
 3693SOL    HW111214   1.402   4.749   2.134 -0.6011  1.4739  0.1214
 3693SOL    HW211215   1.291   4.750   2.237  0.2075  0.0298  1.0306
 3694SOL     OW11216   4.969   1.087   2.290 -0.4489 -0.2255 -0.1715
 3694SOL    HW111217   4.981   1.008   2.342 -1.9024 -1.4228 -1.5798
 3694SOL    HW211218   4.894   1.131   2.330 -2.5178 -1.8998 -2.0370
 3695SOL     OW11219   1.296   3.012   0.491  0.5475  0.8960 -0.4219
 3695SOL    HW111220   1.224   2.982   0.436  2.3148  0.2699 -2.5722
 3695SOL    HW211221   1.257   3.076   0.550 -2.0561 -0.6459 -0.3223
 3696SOL     OW11222   4.494   4.405   4.456 -0.4246  0.0520  0.6677
 3696SOL    HW111223   4.448   4.397   4.373  1.2080  1.3946 -0.4120
 3696SOL    HW211224   4.494   4.498   4.476  0.9274 -0.0203  1.1474
 3697SOL     OW11225   1.315   0.595   2.851  0.3256 -0.1760 -0.4577
 3697SOL    HW111226   1.387   0.653   2.828  0.9344 -0.8255 -0.2438
 3697SOL    HW211227   1.236   0.642   2.826  0.8679  0.1070 -1.6944
 3698SOL     OW11228   1.044   2.976   0.356 -0.1797 -0.3001 -0.1157
 3698SOL    HW111229   1.060   2.979   0.262  4.7744  0.0444  0.4584
 3698SOL    HW211230   1.010   2.887   0.371 -3.3023  0.3476 -2.2539
 3699SOL     OW11231   4.687   1.095   0.735 -0.1864 -0.7075  0.0966
 3699SOL    HW111232   4.773   1.138   0.734 -1.2040  1.5289  1.6818
 3699SOL    HW211233   4.645   1.127   0.815 -3.2967 -0.0765 -1.6418
 3700SOL     OW11234   1.254   2.149   0.092 -0.1822 -0.4639 -0.3199
 3700SOL    HW111235   1.247   2.083   0.161 -1.3670  1.3144  1.3600
 3700SOL    HW211236   1.349   2.159   0.080  0.1898  0.5891  2.5680
 3701SOL     OW11237   2.771   4.891   2.173 -0.0128 -0.2884  0.1554
 3701SOL    HW111238   2.714   4.960   2.207 -0.1354  0.6929 -1.9042
 3701SOL    HW211239   2.712   4.830   2.129  0.3920  0.3101 -1.2872
 3702SOL     OW11240   2.394   3.046   1.527  0.7243 -0.2088 -0.0784
 3702SOL    HW111241   2.455   3.044   1.454 -0.4579  0.8499 -1.1340
 3702SOL    HW211242   2.421   3.121   1.579 -0.2678  0.9286 -1.1324
 3703SOL     OW11243   1.788   4.284   1.687 -0.7043 -0.0624  0.3048
 3703SOL    HW111244   1.831   4.355   1.640 -1.7630 -0.5824 -1.5806
 3703SOL    HW211245   1.727   4.246   1.623 -1.0213 -1.9137  1.6035
 3704SOL     OW11246   2.485   1.249   4.341 -0.4979  0.1047 -0.0646
 3704SOL    HW111247   2.408   1.194   4.355 -0.3351 -0.4850 -1.3963
 3704SOL    HW211248   2.487   1.306   4.418 -1.6208 -0.6194  0.5347
 3705SOL     OW11249   0.924   2.490   3.219 -0.4152  0.5471  0.2942
 3705SOL    HW111250   1.012   2.507   3.185 -0.4883  0.9612  0.3072
 3705SOL    HW211251   0.896   2.411   3.173  0.4559 -0.3314  1.2073
 3706SOL     OW11252   4.232   4.011   2.400  0.5143 -0.2281  0.2291
 3706SOL    HW111253   4.255   3.943   2.336 -0.5230 -0.6182  0.2457
 3706SOL    HW211254   4.161   3.972   2.451  0.9161  0.3174  1.2154
 3707SOL     OW11255   1.429   4.709   4.521  0.0731 -0.2235  0.1516
 3707SOL    HW111256   1.350   4.740   4.566  0.3217  0.0568  0.4054
 3707SOL    HW211257   1.439   4.769   4.447  0.3608  0.0993  0.4453
 3708SOL     OW11258   3.646   3.031   0.741  0.1487 -0.2613 -0.0673
 3708SOL    HW111259   3.558   3.063   0.722  0.4921  0.5871 -0.2978
 3708SOL    HW211260   3.633   2.944   0.776 -0.8376  0.2055  0.7687
 3709SOL     OW11261   0.570   2.275   1.154 -0.2234 -0.2557 -0.0321
 3709SOL    HW111262   0.626   2.197   1.155 -0.8509 -0.7202  0.2277
 3709SOL    HW211263   0.605   2.330   1.224 -0.1065 -0.5558  0.1515
 3710SOL     OW11264   1.570   4.088   2.390 -0.4838 -0.8663 -0.4911
 3710SOL    HW111265   1.637   4.149   2.421  2.0607 -2.9869 -1.4494
 3710SOL    HW211266   1.547   4.122   2.303 -1.0526  0.1536  0.0421
 3711SOL     OW11267   1.018   4.675   2.166  0.3187 -0.6521 -0.5192
 3711SOL    HW111268   1.040   4.684   2.258 -1.0929 -0.2068 -0.2156
 3711SOL    HW211269   1.072   4.601   2.136 -0.6771 -2.1348  1.1531
 3712SOL     OW11270   4.154   3.595   2.466  0.0179 -0.4272  0.4249
 3712SOL    HW111271   4.177   3.532   2.534 -0.9651  1.1822  2.3508
 3712SOL    HW211272   4.175   3.551   2.384  1.7068 -2.2641  1.7654
 3713SOL     OW11273   1.135   0.295   3.414  0.0949  0.0615 -0.3051
 3713SOL    HW111274   1.222   0.260   3.433  0.6170  1.7418  0.5663
 3713SOL    HW211275   1.111   0.344   3.492 -1.2331  0.4251 -0.9130
 3714SOL     OW11276   1.164   0.984   0.982 -0.2541 -0.0906 -0.5728
 3714SOL    HW111277   1.175   0.955   0.892  0.7596 -1.8355  0.0670
 3714SOL    HW211278   1.172   0.905   1.034  2.2809  1.2483  1.2950
 3715SOL     OW11279   0.118   2.999   0.014  0.4471  0.1984  0.0574
 3715SOL    HW111280   0.154   3.088   0.022  0.8118 -0.1205  2.7167
 3715SOL    HW211281   0.183   2.944   0.057 -0.9630 -1.0452  0.6306
 3716SOL     OW11282   0.921   1.644   0.995 -1.0034 -0.2139  0.6780
 3716SOL    HW111283   0.846   1.615   1.048 -1.5577  0.0626  0.0614
 3716SOL    HW211284   0.903   1.609   0.908 -0.4418 -0.0851  0.5116
 3717SOL     OW11285   1.961   2.150   4.715 -0.5782  0.1756 -0.1938
 3717SOL    HW111286   2.009   2.224   4.751 -0.7216  0.3740 -0.4104
 3717SOL    HW211287   1.985   2.076   4.771 -1.3246  0.6100  0.7203
 3718SOL     OW11288   4.148   4.523   4.096  0.4647 -0.0501  0.3002
 3718SOL    HW111289   4.202   4.601   4.104 -0.2171  0.7791 -2.3117
 3718SOL    HW211290   4.072   4.540   4.152  1.1819  0.3123  1.1945
 3719SOL     OW11291   3.762   1.399   1.933  0.5270  0.1326 -0.0664
 3719SOL    HW111292   3.734   1.485   1.902  2.1874  1.2746  1.4422
 3719SOL    HW211293   3.702   1.338   1.890 -0.1945  1.9535 -1.8085
 3720SOL     OW11294   1.542   2.164   1.343  0.5238 -0.4414  0.2076
 3720SOL    HW111295   1.522   2.254   1.318  1.2359 -0.9011 -2.2947
 3720SOL    HW211296   1.460   2.116   1.329  0.6640 -0.5222 -0.3546
 3721SOL     OW11297   4.500   2.889   4.845 -0.2296  0.4662  0.5572
 3721SOL    HW111298   4.445   2.819   4.810  0.2704  0.8518 -1.0724
 3721SOL    HW211299   4.588   2.868   4.812 -0.0076  1.6653  0.3639
 3722SOL     OW11300   2.257   2.475   3.350 -0.1736 -0.3779 -0.0983
 3722SOL    HW111301   2.348   2.476   3.381 -0.5596  0.6456  1.1102
 3722SOL    HW211302   2.228   2.386   3.366  1.0592 -1.1654 -1.9587
 3723SOL     OW11303   1.383   2.936   4.029 -0.0751  0.2942 -0.0800
 3723SOL    HW111304   1.443   2.925   4.103  2.0111  0.9454 -1.5811
 3723SOL    HW211305   1.344   3.022   4.041  0.0938  0.3068  0.3700
 3724SOL     OW11306   3.099   0.110   0.213 -0.0389  0.4938 -0.0238
 3724SOL    HW111307   3.023   0.052   0.209 -0.0011  0.5069 -1.4958
 3724SOL    HW211308   3.114   0.124   0.306 -0.3361 -1.4839  0.3530
 3725SOL     OW11309   3.388   4.639   2.568 -0.2845 -0.1313  0.2435
 3725SOL    HW111310   3.391   4.548   2.537  0.8525 -0.7115  1.8900
 3725SOL    HW211311   3.298   4.652   2.596 -0.2318 -1.1019  0.9143
 3726SOL     OW11312   4.910   1.618   4.256  0.1667  0.4833  0.0240
 3726SOL    HW111313   4.954   1.631   4.172  1.4075 -2.0449  0.1972
 3726SOL    HW211314   4.967   1.558   4.304 -1.2584  0.6853  2.1043
 3727SOL     OW11315   3.490   2.039   3.839 -0.2804 -0.8650  0.1474
 3727SOL    HW111316   3.574   2.014   3.877  1.3252  0.9323 -1.9499
 3727SOL    HW211317   3.428   2.031   3.911  1.9386 -0.8052  2.2004
 3728SOL     OW11318   2.952   3.847   4.742 -0.2432  0.6150 -0.6009
 3728SOL    HW111319   2.997   3.875   4.662  0.6379 -0.5498 -0.5247
 3728SOL    HW211320   2.981   3.757   4.757  2.9675  2.0227  3.3645
 3729SOL     OW11321   2.598   4.089   2.893  0.7377  0.6350  1.1051
 3729SOL    HW111322   2.629   4.179   2.879  0.2358  0.4649 -1.8449
 3729SOL    HW211323   2.670   4.034   2.861 -0.3109  0.1395 -0.5883
 3730SOL     OW11324   1.859   1.826   2.821  0.0434  0.3068 -0.1719
 3730SOL    HW111325   1.950   1.827   2.793 -0.0385 -1.3991 -0.5927
 3730SOL    HW211326   1.818   1.898   2.772  1.2637  1.5266  0.5309
 3731SOL     OW11327   4.085   0.653   3.718  0.3226  0.4802  0.3842
 3731SOL    HW111328   4.113   0.744   3.722 -2.7402  1.4981  1.7071
 3731SOL    HW211329   4.089   0.622   3.808 -0.1292 -0.1962  0.1787
 3732SOL     OW11330   3.150   4.153   1.359 -0.0266 -0.0932 -0.6647
 3732SOL    HW111331   3.223   4.159   1.297  1.6493 -3.1671  0.7817
 3732SOL    HW211332   3.142   4.059   1.377 -1.5880  0.5029  2.4010
 3733SOL     OW11333   0.252   0.569   4.937  0.6519  0.3725 -0.3478
 3733SOL    HW111334   0.285   0.541   5.023 -0.7877 -0.1964  0.0659
 3733SOL    HW211335   0.246   0.488   4.886 -2.2328 -0.0011  0.3907
 3734SOL     OW11336   0.840   1.371   4.444  0.6094  0.2647 -0.0017
 3734SOL    HW111337   0.883   1.409   4.520 -0.9638  0.7109  0.7032
 3734SOL    HW211338   0.842   1.277   4.459  0.4999  0.3401  0.4822
 3735SOL     OW11339   2.360   3.932   2.825 -0.4806  0.3471 -0.1452
 3735SOL    HW111340   2.364   3.907   2.732  0.4204 -1.6876  0.3992
 3735SOL    HW211341   2.448   3.965   2.845 -0.7455  1.0190 -0.0586
 3736SOL     OW11342   0.797   1.098   1.820 -0.1950  0.0327 -0.3962
 3736SOL    HW111343   0.764   1.010   1.837 -1.4274  0.5308 -0.0380
 3736SOL    HW211344   0.847   1.121   1.899  0.6830 -0.5727 -0.7631
 3737SOL     OW11345   0.877   2.123   3.810 -0.0178 -0.0505  0.2729
 3737SOL    HW111346   0.959   2.087   3.843 -0.4754 -1.6815 -0.2543
 3737SOL    HW211347   0.810   2.085   3.867 -0.6234 -1.0896 -1.0870
 3738SOL     OW11348   2.668   1.071   3.308 -0.1494 -0.4405 -0.0781
 3738SOL    HW111349   2.661   1.088   3.401 -0.2591  1.4515 -0.3851
 3738SOL    HW211350   2.582   1.093   3.272  0.4168  0.6452 -0.8432
 3739SOL     OW11351   0.391   4.082   1.965  0.2898 -0.0554 -0.1109
 3739SOL    HW111352   0.363   4.170   1.992 -1.2967 -0.4842 -0.2882
 3739SOL    HW211353   0.425   4.042   2.045  1.2360  0.7697 -0.0723
 3740SOL     OW11354   2.037   2.531   1.054 -0.2660  0.3833  0.2753
 3740SOL    HW111355   2.114   2.538   0.997  0.3634 -0.6344  0.9502
 3740SOL    HW211356   1.975   2.595   1.019  0.8860  1.2323 -0.2887
 3741SOL     OW11357   1.039   2.092   0.998  0.2978 -0.3246  0.1700
 3741SOL    HW111358   1.022   2.051   0.913 -0.4937  0.3950 -0.0301
 3741SOL    HW211359   0.964   2.067   1.052  0.9004 -0.9479  0.7318
 3742SOL     OW11360   1.723   0.902   0.285  1.0389  0.5547 -0.7308
 3742SOL    HW111361   1.772   0.901   0.203  0.9412 -1.7911 -0.8153
 3742SOL    HW211362   1.712   0.995   0.304  1.6555  1.1677 -2.9991
 3743SOL     OW11363   1.960   2.088   2.088 -0.1783  0.0519  0.3948
 3743SOL    HW111364   2.021   2.079   2.015  0.7849 -0.0709  1.1882
 3743SOL    HW211365   1.932   2.180   2.085 -1.4890 -0.3467 -1.1288
 3744SOL     OW11366   4.189   3.616   0.061  0.5990  0.6116 -0.3075
 3744SOL    HW111367   4.158   3.635   0.150  0.3392 -1.5424  0.1307
 3744SOL    HW211368   4.261   3.677   0.047  0.0972  1.5658  1.0575
 3745SOL     OW11369   0.251   3.455   1.570 -0.0491  0.6195 -0.2998
 3745SOL    HW111370   0.276   3.401   1.645 -1.2752  0.5534  0.0851
 3745SOL    HW211371   0.177   3.507   1.601  0.8133  2.2181 -0.7980
 3746SOL     OW11372   2.272   0.790   1.066 -0.3671 -0.4729  0.5414
 3746SOL    HW111373   2.358   0.773   1.026 -0.2469  0.4826  0.3770
 3746SOL    HW211374   2.210   0.782   0.993 -0.2776  0.0850  0.4020
 3747SOL     OW11375   2.668   2.198   0.178  0.1409 -0.2685  0.5806
 3747SOL    HW111376   2.692   2.237   0.262 -0.2292  0.1244  0.5059
 3747SOL    HW211377   2.751   2.183   0.134  0.3279 -0.3044  0.9420
 3748SOL     OW11378   3.741   1.199   0.538 -0.5829  0.1245  0.2469
 3748SOL    HW111379   3.827   1.158   0.527 -1.7073 -2.0679 -1.0678
 3748SOL    HW211380   3.730   1.206   0.633  0.5580 -0.6076  0.4560
 3749SOL     OW11381   3.374   2.871   2.064  0.4596  0.0589 -0.0221
 3749SOL    HW111382   3.420   2.881   2.147 -1.3446 -0.0099  1.0253
 3749SOL    HW211383   3.434   2.819   2.010  0.6859 -2.0346  2.0790
 3750SOL     OW11384   2.290   3.688   0.906  0.1667 -0.4120 -0.4353
 3750SOL    HW111385   2.318   3.686   0.815  0.3056  0.6930 -0.4320
 3750SOL    HW211386   2.287   3.781   0.928 -0.8883 -0.6095  0.3724
 3751SOL     OW11387   3.701   2.961   0.433  0.0271  0.0248  0.6225
 3751SOL    HW111388   3.672   3.006   0.354 -0.1876  1.9415  1.7347
 3751SOL    HW211389   3.690   3.025   0.503  0.0892 -1.6401  2.2542
 3752SOL     OW11390   4.058   1.943   4.282  0.0227 -0.1165  0.1493
 3752SOL    HW111391   4.048   1.944   4.187 -0.3603  0.6400  0.1906
 3752SOL    HW211392   4.145   1.905   4.297  0.1881  0.0045 -0.5067
 3753SOL     OW11393   0.130   3.269   4.059 -0.2815  0.0483  0.3056
 3753SOL    HW111394   0.056   3.208   4.062  2.7823 -4.2355 -0.6268
 3753SOL    HW211395   0.137   3.294   3.967 -0.1874 -0.1183  0.2664
 3754SOL     OW11396   2.692   1.872   0.033 -0.9170  0.6884 -0.0113
 3754SOL    HW111397   2.666   1.960   0.062 -0.9854  0.6697 -0.0177
 3754SOL    HW211398   2.626   1.814   0.069  0.1970  0.4011  1.7152
 3755SOL     OW11399   4.821   2.204   1.609 -0.3574 -0.2978 -0.5774
 3755SOL    HW111400   4.827   2.160   1.694  1.0360  1.1883  0.1413
 3755SOL    HW211401   4.728   2.225   1.600 -0.4875 -0.2322  0.7241
 3756SOL     OW11402   4.828   4.941   3.095 -0.6813  0.0053  0.4605
 3756SOL    HW111403   4.790   4.883   3.162  2.3416 -0.3260  2.0737
 3756SOL    HW211404   4.898   4.988   3.141  0.2695  1.2112 -2.0488
 3757SOL     OW11405   3.033   1.792   2.594 -0.1272 -0.2872  0.0535
 3757SOL    HW111406   2.950   1.824   2.557 -0.3104  0.5848  1.1456
 3757SOL    HW211407   3.026   1.812   2.687  1.4426  0.0816  0.1156
 3758SOL     OW11408   1.432   1.381   0.665 -0.1957 -0.5260 -0.0451
 3758SOL    HW111409   1.390   1.317   0.722 -2.6387  0.3057 -0.7901
 3758SOL    HW211410   1.361   1.415   0.610  1.6837  0.1495 -2.2270
 3759SOL     OW11411   2.738   4.610   0.526  0.7141 -0.4137 -0.3975
 3759SOL    HW111412   2.751   4.692   0.478 -0.4250  0.2714  0.4086
 3759SOL    HW211413   2.679   4.559   0.470 -0.1797  0.1640 -0.0157
 3760SOL     OW11414   2.787   2.562   2.307 -0.2412 -0.4430 -0.4745
 3760SOL    HW111415   2.860   2.532   2.360 -1.0343 -1.6709 -0.0431
 3760SOL    HW211416   2.815   2.547   2.217  0.4440  0.0761 -0.3546
 3761SOL     OW11417   4.766   2.021   4.137 -0.3069  0.3027 -0.1733
 3761SOL    HW111418   4.776   1.962   4.211  2.1834 -1.2792 -1.6537
 3761SOL    HW211419   4.784   1.967   4.060 -1.0852  2.2738 -1.8427
 3762SOL     OW11420   2.710   2.131   4.845 -0.6522 -0.0420 -0.4267
 3762SOL    HW111421   2.769   2.153   4.917 -1.2399  0.6675 -0.1544
 3762SOL    HW211422   2.756   2.062   4.797  0.0509 -0.0421  0.2264
 3763SOL     OW11423   3.759   4.587   1.423  0.0247 -0.3404 -0.1826
 3763SOL    HW111424   3.766   4.580   1.328 -2.4837 -1.3168 -0.3587
 3763SOL    HW211425   3.701   4.661   1.437 -0.0403 -0.5301  0.5766
 3764SOL     OW11426   4.070   3.867   0.459  0.0569 -0.3302 -0.4496
 3764SOL    HW111427   4.114   3.925   0.521  1.8566 -2.7415  0.7243
 3764SOL    HW211428   3.977   3.873   0.482  0.3203  1.2499  0.3181
 3765SOL     OW11429   4.598   4.119   4.409  0.7170 -0.0782  0.1813
 3765SOL    HW111430   4.561   4.197   4.451  0.6741 -0.4079  0.7633
 3765SOL    HW211431   4.642   4.153   4.331 -0.4300  0.3690 -0.2913
 3766SOL     OW11432   0.859  -0.008   0.963 -0.1629  0.0160 -0.8111
 3766SOL    HW111433   0.894   0.080   0.973  0.2967 -0.4032  2.2768
 3766SOL    HW211434   0.927  -0.066   0.998 -1.3447 -1.3432 -0.6426
 3767SOL     OW11435   1.678   2.550   1.280 -0.8127  0.4590  0.1979
 3767SOL    HW111436   1.743   2.609   1.243  0.7241 -0.4494  1.3120
 3767SOL    HW211437   1.662   2.583   1.368  0.6763 -1.1319  1.1432
 3768SOL     OW11438   1.752   1.243   3.276  0.0689  0.0092 -0.2334
 3768SOL    HW111439   1.726   1.273   3.189 -1.1182 -0.0631  0.0794
 3768SOL    HW211440   1.836   1.286   3.292 -0.0293  0.5631 -1.1276
 3769SOL     OW11441   3.565   2.620   1.000 -0.1084 -0.1868  0.1041
 3769SOL    HW111442   3.537   2.670   0.923 -1.1185 -1.3306 -0.3119
 3769SOL    HW211443   3.503   2.546   1.004  0.9848 -1.0880  1.0138
 3770SOL     OW11444   3.912   2.516   3.545  0.4577 -0.4005  0.0657
 3770SOL    HW111445   3.902   2.422   3.563  1.8005 -0.2106  2.1421
 3770SOL    HW211446   3.895   2.558   3.629  0.1239  1.2255 -0.7823
 3771SOL     OW11447   3.508   1.793   4.353  0.2263 -0.1191 -0.2546
 3771SOL    HW111448   3.527   1.887   4.343  0.2721  0.4620  3.5312
 3771SOL    HW211449   3.413   1.787   4.348  0.3037 -0.2469 -2.3462
 3772SOL     OW11450   1.313   4.257   1.961 -0.1664 -0.5157 -1.1792
 3772SOL    HW111451   1.362   4.210   2.028 -1.4872 -3.4576 -2.1425
 3772SOL    HW211452   1.378   4.276   1.893  0.3698 -1.1571 -0.8585
 3773SOL     OW11453   2.456   4.060   4.674 -0.4468  0.3687  0.3714
 3773SOL    HW111454   2.525   4.024   4.730 -2.2300  1.2356  3.3156
 3773SOL    HW211455   2.381   4.003   4.686 -1.1168  0.9910 -0.6262
 3774SOL     OW11456   3.251   4.953   2.435 -0.0110 -0.7614  0.3619
 3774SOL    HW111457   3.161   4.944   2.403 -0.3227 -1.9490  1.4653
 3774SOL    HW211458   3.247   4.922   2.526  2.0677 -3.7617 -0.4236
 3775SOL     OW11459   3.942   2.405   2.047 -0.0808 -0.3608  0.1256
 3775SOL    HW111460   3.916   2.395   2.139  2.9554  1.0168  1.2801
 3775SOL    HW211461   3.998   2.330   2.030 -0.4411 -0.4805 -0.5523
 3776SOL     OW11462   4.667   2.554   3.758 -0.2790 -0.2974  0.5805
 3776SOL    HW111463   4.731   2.621   3.736 -1.0924  0.9267  1.7648
 3776SOL    HW211464   4.710   2.471   3.736  0.2525  0.6082 -2.1390
 3777SOL     OW11465   3.233   2.564   0.895  0.7160  0.0645  0.2039
 3777SOL    HW111466   3.191   2.650   0.890 -0.4417 -0.5297 -1.0755
 3777SOL    HW211467   3.161   2.503   0.908  1.3238 -0.8657 -0.6208
 3778SOL     OW11468   3.227   2.005   2.319 -0.9106  0.0877 -0.0089
 3778SOL    HW111469   3.251   2.004   2.227 -1.4658 -0.5050 -0.1477
 3778SOL    HW211470   3.132   2.014   2.320 -0.8973  0.2378  0.5092
 3779SOL     OW11471   4.791   4.513   2.775 -0.2738 -0.2047 -0.0279
 3779SOL    HW111472   4.730   4.524   2.848 -2.7876 -0.7484 -1.9001
 3779SOL    HW211473   4.821   4.422   2.782 -2.4065 -1.0471 -0.9241
 3780SOL     OW11474   2.529   4.328   0.708  0.5005 -0.2086 -0.1912
 3780SOL    HW111475   2.540   4.236   0.686  1.3012  0.0529 -0.9132
 3780SOL    HW211476   2.482   4.365   0.633  0.0503 -0.0492  0.1626
 3781SOL     OW11477   4.318   3.237   4.545 -0.0079 -0.0176  0.0869
 3781SOL    HW111478   4.238   3.196   4.513  0.2025 -0.6728  0.3980
 3781SOL    HW211479   4.288   3.295   4.616 -0.4009  0.9950 -0.8705
 3782SOL     OW11480   0.766   1.820   0.006  0.1449  0.4003  0.0714
 3782SOL    HW111481   0.766   1.879   0.081  0.9162  0.8955 -0.3102
 3782SOL    HW211482   0.807   1.870  -0.065  1.6734 -0.8844 -0.0122
 3783SOL     OW11483   2.076   2.104   3.779 -0.1747  0.0225  0.0271
 3783SOL    HW111484   2.097   2.159   3.855 -2.0903  0.4307  0.3243
 3783SOL    HW211485   2.042   2.023   3.818  1.6750 -1.0320 -0.4207
 3784SOL     OW11486   2.426   1.396   3.850 -0.5667 -0.1043 -0.1842
 3784SOL    HW111487   2.376   1.356   3.921  0.6352 -1.5913 -0.1025
 3784SOL    HW211488   2.372   1.468   3.819 -1.1082  0.6080  2.2520
 3785SOL     OW11489   3.055   4.184   0.133 -0.9624  0.1245  0.1759
 3785SOL    HW111490   3.022   4.274   0.142 -1.7091 -0.1288  0.0598
 3785SOL    HW211491   3.027   4.157   0.046 -1.0299 -0.3335  0.3388
 3786SOL     OW11492   3.628   1.712   2.494  0.3900 -0.5231 -0.0469
 3786SOL    HW111493   3.605   1.796   2.456  1.1475 -0.6224 -0.7508
 3786SOL    HW211494   3.556   1.654   2.470 -1.0735  0.3323  2.0192
 3787SOL     OW11495   2.704   2.301   3.262 -1.5398  0.4112 -0.1242
 3787SOL    HW111496   2.751   2.244   3.202 -0.0004  1.7590 -0.2878
 3787SOL    HW211497   2.612   2.287   3.243 -1.1767 -1.3285 -0.7512
 3788SOL     OW11498   2.829   3.099   3.603  0.2859 -0.1505  0.3295
 3788SOL    HW111499   2.900   3.164   3.600 -0.8339  1.0836 -0.0534
 3788SOL    HW211500   2.841   3.056   3.688  1.7401 -0.2739  0.0971
 3789SOL     OW11501   1.167   0.775   1.126  0.2061 -0.0726  0.1406
 3789SOL    HW111502   1.088   0.745   1.172  1.3460 -2.8919  0.4638
 3789SOL    HW211503   1.236   0.767   1.191  0.7929  2.6509 -0.0518
 3790SOL     OW11504   2.707   1.599   0.190  0.1005 -0.2772  0.0010
 3790SOL    HW111505   2.732   1.668   0.252 -1.8491  0.4652  0.0208
 3790SOL    HW211506   2.615   1.583   0.208 -0.5172 -0.0705 -2.6489
 3791SOL     OW11507   0.451   2.814   4.118  0.0542  0.2479 -0.2841
 3791SOL    HW111508   0.507   2.852   4.186 -0.9633  0.4793  0.4479
 3791SOL    HW211509   0.398   2.887   4.087 -1.6973 -0.4471  0.9179
 3792SOL     OW11510   4.659   0.638   1.370 -0.1120 -0.4289  0.3703
 3792SOL    HW111511   4.724   0.699   1.405  1.2035 -1.3757 -0.3618
 3792SOL    HW211512   4.588   0.694   1.339  0.0673  0.5920  1.7175
 3793SOL     OW11513   0.804   0.230   3.382  0.5388 -0.2864  0.4579
 3793SOL    HW111514   0.801   0.149   3.332 -1.7549 -1.1211  1.8360
 3793SOL    HW211515   0.886   0.272   3.354  1.6234 -2.8747 -0.5379
 3794SOL     OW11516   4.990   4.452   4.584 -0.4590  0.3817  0.3688
 3794SOL    HW111517   4.922   4.387   4.567 -1.8603  1.8034  0.3400
 3794SOL    HW211518   4.958   4.502   4.659  1.2558  0.1744  1.2858
 3795SOL     OW11519   1.907   0.711   0.513 -0.4632  0.0648 -0.1819
 3795SOL    HW111520   1.813   0.694   0.502 -0.3034 -2.0733  1.1008
 3795SOL    HW211521   1.949   0.646   0.456  0.2312 -0.0667  0.4689
 3796SOL     OW11522   3.613   1.827   3.465 -0.9166  0.1175 -0.0584
 3796SOL    HW111523   3.648   1.741   3.443 -2.6027 -0.0859 -2.3310
 3796SOL    HW211524   3.673   1.889   3.424  1.6644  0.2846  3.5574
 3797SOL     OW11525   4.624   0.094   1.445  0.3743 -0.3932  0.2615
 3797SOL    HW111526   4.668   0.177   1.426  1.2830 -0.6455  1.1647
 3797SOL    HW211527   4.545   0.096   1.390  0.7725  0.7134 -0.3152
 3798SOL     OW11528   4.058   4.774   1.573  0.0833  0.2884  0.3240
 3798SOL    HW111529   4.017   4.860   1.575 -0.3270  0.1093 -0.0597
 3798SOL    HW211530   4.136   4.786   1.518 -0.0878  0.3682  0.0967
 3799SOL     OW11531   3.913   0.547   2.161 -0.1537  0.3802 -0.1240
 3799SOL    HW111532   3.999   0.513   2.138 -0.5415 -1.2377  0.6687
 3799SOL    HW211533   3.877   0.483   2.223 -0.7032  2.5255  1.9614
 3800SOL     OW11534   3.964   2.859   3.966  0.2718 -0.0260 -0.6377
 3800SOL    HW111535   3.973   2.892   3.876  1.4605 -2.9162 -1.7013
 3800SOL    HW211536   3.870   2.842   3.976  0.3511 -1.6679 -2.1905
 3801SOL     OW11537   3.193   3.249   3.411  0.2327 -0.3861  0.5012
 3801SOL    HW111538   3.142   3.327   3.389 -1.3025 -0.8151  2.3031
 3801SOL    HW211539   3.140   3.176   3.380  1.7829 -0.7681 -1.4113
 3802SOL     OW11540   1.622   0.922   2.886  0.2124  0.8872 -0.6233
 3802SOL    HW111541   1.587   0.979   2.955 -1.8317 -0.5970 -0.3622
 3802SOL    HW211542   1.707   0.893   2.920 -1.3749 -0.9869  2.0412
 3803SOL     OW11543   1.857   0.759   2.281  0.3283 -0.3881 -0.0405
 3803SOL    HW111544   1.838   0.683   2.226  0.0252 -0.8139  0.6428
 3803SOL    HW211545   1.937   0.797   2.243  0.3729 -0.9298 -0.5002
 3804SOL     OW11546   3.837   2.612   3.311  0.2518  0.4187  0.1521
 3804SOL    HW111547   3.880   2.591   3.394  1.2056  0.2497 -0.3794
 3804SOL    HW211548   3.745   2.591   3.326  0.3312  0.8555  1.3279
 3805SOL     OW11549   2.229   0.429   3.106  0.2543 -0.1166 -0.1378
 3805SOL    HW111550   2.206   0.416   3.198  1.1501 -0.8271 -0.0077
 3805SOL    HW211551   2.179   0.362   3.059 -1.0315  0.9229 -0.3052
 3806SOL     OW11552   0.004   0.174   3.722  0.0914 -0.3423  0.1917
 3806SOL    HW111553   0.053   0.209   3.647 -0.1422 -2.1223 -0.8459
 3806SOL    HW211554   0.064   0.112   3.762 -1.1665 -2.4472 -1.0064
 3807SOL     OW11555   3.991   1.540   3.020 -0.4947 -0.2777 -0.3974
 3807SOL    HW111556   4.036   1.523   3.103  1.8652  1.9592 -1.0867
 3807SOL    HW211557   4.023   1.471   2.961  0.0089 -0.2372 -0.1784
 3808SOL     OW11558   0.694   2.500   3.802 -0.3869 -0.2492 -0.3555
 3808SOL    HW111559   0.659   2.493   3.891 -1.4996 -0.3280 -0.7777
 3808SOL    HW211560   0.784   2.469   3.808 -0.3505  0.0496  0.8011
 3809SOL     OW11561   4.274   4.048   2.873  0.1420  0.3246  0.6743
 3809SOL    HW111562   4.345   3.983   2.874 -0.4083 -0.3101 -0.0452
 3809SOL    HW211563   4.310   4.121   2.823  0.2112 -0.1074  0.0749
 3810SOL     OW11564   0.522   4.880   3.102  0.6251 -0.6259 -0.6529
 3810SOL    HW111565   0.461   4.848   3.036  0.4527  0.0189 -0.8110
 3810SOL    HW211566   0.588   4.929   3.052  0.2147  0.2889 -0.3018
 3811SOL     OW11567   4.753   2.998   3.341 -0.7091  0.2629  0.3738
 3811SOL    HW111568   4.663   3.019   3.318 -0.2314  1.7168 -0.2695
 3811SOL    HW211569   4.785   2.945   3.268 -0.9899 -0.1214  0.5282
 3812SOL     OW11570   1.838   2.876   0.801 -0.5975  0.7951  0.1013
 3812SOL    HW111571   1.746   2.895   0.783 -0.1448  2.0822 -1.0040
 3812SOL    HW211572   1.842   2.781   0.806 -1.9299  0.7026 -0.1427
 3813SOL     OW11573   1.371   2.126   2.177 -0.6424  0.2864 -0.9178
 3813SOL    HW111574   1.327   2.123   2.091 -0.2924 -0.2249 -1.0842
 3813SOL    HW211575   1.309   2.172   2.234 -1.4289 -0.4745 -1.1309
 3814SOL     OW11576   3.369   0.463   0.640  0.1019  0.1209 -0.5629
 3814SOL    HW111577   3.341   0.379   0.675 -0.5566 -0.2418 -1.8978
 3814SOL    HW211578   3.297   0.523   0.660  1.1338  0.7721  1.6110
 3815SOL     OW11579   4.446   4.256   1.568 -0.4510  0.1889 -0.4745
 3815SOL    HW111580   4.434   4.350   1.573 -1.0472  0.0604  1.3191
 3815SOL    HW211581   4.420   4.233   1.478 -1.6651  1.5453 -0.5158
 3816SOL     OW11582   0.450   3.973   2.221  0.2077 -0.4288  0.2460
 3816SOL    HW111583   0.366   3.988   2.264  1.1519  2.4985  1.3251
 3816SOL    HW211584   0.515   4.004   2.284  1.9063  0.0938 -1.6577
 3817SOL     OW11585   3.838   0.776   1.890  0.0449  0.1870 -0.0647
 3817SOL    HW111586   3.837   0.763   1.985 -0.1696 -0.2647 -0.1259
 3817SOL    HW211587   3.749   0.756   1.862  0.1018  0.3383 -0.3617
 3818SOL     OW11588   4.672   1.252   2.215  0.6193 -0.0207  0.1394
 3818SOL    HW111589   4.745   1.283   2.269  1.5009  2.7549 -2.3417
 3818SOL    HW211590   4.711   1.185   2.159  0.3977 -0.9301  1.0622
 3819SOL     OW11591   1.619   1.074   2.431  0.0665 -0.6074  0.3123
 3819SOL    HW111592   1.530   1.101   2.455 -0.1971 -1.1783  0.0145
 3819SOL    HW211593   1.614   0.979   2.427  0.4237 -0.5942 -0.7315
 3820SOL     OW11594   4.536   0.265   2.074 -0.0259  0.8459 -0.2100
 3820SOL    HW111595   4.512   0.210   1.999 -1.1043  0.3137  0.4972
 3820SOL    HW211596   4.595   0.210   2.126 -0.8758  0.4312  0.3478
 3821SOL     OW11597   2.855   4.682   4.742 -0.3774 -0.0049  0.2126
 3821SOL    HW111598   2.788   4.615   4.744  0.0970 -0.4862  0.0956
 3821SOL    HW211599   2.917   4.653   4.675 -0.8233  1.1760 -0.7451
 3822SOL     OW11600   3.082   1.123   2.819 -0.2292 -0.1171  0.1488
 3822SOL    HW111601   3.092   1.051   2.881 -0.0211 -0.7930 -0.6529
 3822SOL    HW211602   3.171   1.154   2.803 -0.1772 -0.5871 -0.5374
 3823SOL     OW11603   2.320   0.630   2.850  1.0581  0.5664 -0.5328
 3823SOL    HW111604   2.255   0.571   2.813  1.2238  0.4250 -0.6025
 3823SOL    HW211605   2.372   0.576   2.909  1.7356  0.4376 -1.2225
 3824SOL     OW11606   0.377   0.428   1.050  0.1337 -0.7768  0.4553
 3824SOL    HW111607   0.361   0.470   1.134  0.2872  0.0216  0.0956
 3824SOL    HW211608   0.352   0.494   0.985 -2.5542 -2.2549 -0.1951
 3825SOL     OW11609   3.940   2.021   1.963  0.2269 -0.1500 -0.2396
 3825SOL    HW111610   3.962   1.954   1.899  0.0101 -1.4934  1.0275
 3825SOL    HW211611   3.897   2.089   1.912  0.7533 -0.8049 -1.6276
 3826SOL     OW11612   0.780   1.702   3.711  0.0307 -0.0793  0.2347
 3826SOL    HW111613   0.722   1.776   3.694 -0.3519 -0.0683  1.4686
 3826SOL    HW211614   0.725   1.625   3.695 -0.5786 -0.0730  1.9998
 3827SOL     OW11615   2.302   0.546   2.166  0.3959 -0.6040 -0.2043
 3827SOL    HW111616   2.265   0.621   2.117 -1.8263 -1.1577  0.4947
 3827SOL    HW211617   2.371   0.584   2.219 -0.6464  0.9808  0.0905
 3828SOL     OW11618   3.543   3.732   2.734 -0.2453 -0.6078 -0.0653
 3828SOL    HW111619   3.624   3.783   2.731 -0.8048  0.2795 -2.9677
 3828SOL    HW211620   3.480   3.788   2.778 -0.4876  0.7708 -2.0298
 3829SOL     OW11621   4.745   3.611   0.841  0.3090 -0.2568 -0.3922
 3829SOL    HW111622   4.798   3.551   0.789  2.4194  0.8392  0.4116
 3829SOL    HW211623   4.720   3.680   0.780 -1.4548 -1.4425 -1.1148
 3830SOL     OW11624   2.106   0.685   4.427 -0.1153  0.3260 -0.0692
 3830SOL    HW111625   2.141   0.726   4.348 -3.1884  2.1186 -0.6547
 3830SOL    HW211626   2.040   0.623   4.395  0.5196 -1.0106  1.0567
 3831SOL     OW11627   2.794   0.398   4.281  0.2963  0.5057  0.7734
 3831SOL    HW111628   2.781   0.429   4.192  2.6995  0.8058  0.4604
 3831SOL    HW211629   2.789   0.302   4.274  0.5152  0.5252  0.2987
 3832SOL     OW11630   0.033   3.716   3.759  0.3516  0.4023 -0.5462
 3832SOL    HW111631   0.027   3.743   3.668 -1.3414  0.5257 -0.4337
 3832SOL    HW211632   0.018   3.796   3.809  1.5064  0.3833 -0.1351
 3833SOL     OW11633   4.533   0.154   2.884 -0.5394  0.0764 -0.6165
 3833SOL    HW111634   4.461   0.139   2.823 -0.0320 -0.9969 -0.9803
 3833SOL    HW211635   4.599   0.089   2.859  0.7603  1.3518 -0.6186
 3834SOL     OW11636   3.474   1.748   1.025 -0.3870  0.1857 -0.2533
 3834SOL    HW111637   3.468   1.674   0.965  1.0489 -0.7241  0.6514
 3834SOL    HW211638   3.559   1.789   1.006  0.9417 -1.1587  2.1674
 3835SOL     OW11639   0.492   4.292   2.290  0.4312  0.0766 -0.5631
 3835SOL    HW111640   0.552   4.240   2.344 -0.7320 -0.7003  0.0258
 3835SOL    HW211641   0.517   4.383   2.308 -0.5123 -0.1062  2.0785
 3836SOL     OW11642   2.942   3.393   3.131 -0.0523  0.1994 -0.6561
 3836SOL    HW111643   3.006   3.436   3.188  0.6350 -1.1449 -0.3742
 3836SOL    HW211644   2.883   3.463   3.104 -0.1756  0.9450  1.3962
 3837SOL     OW11645   4.839   3.377   1.980 -0.4939 -0.0400 -0.1294
 3837SOL    HW111646   4.755   3.422   1.976 -1.1295 -1.2612 -2.2089
 3837SOL    HW211647   4.901   3.437   1.938 -0.5775  0.3243  0.2592
 3838SOL     OW11648   1.658   1.840   0.973  0.4734  0.1963 -0.5445
 3838SOL    HW111649   1.617   1.891   1.043  0.1865  1.2330 -1.4368
 3838SOL    HW211650   1.595   1.771   0.953  1.7976 -1.9896  2.1879
 3839SOL     OW11651   0.705   4.131   2.659  0.4672  0.4421  0.7460
 3839SOL    HW111652   0.702   4.225   2.680  1.6761  0.1131  2.6899
 3839SOL    HW211653   0.798   4.114   2.642 -0.0390  0.0099 -1.9444
 3840SOL     OW11654   2.625   4.803   3.316  0.0012 -0.7335 -0.1756
 3840SOL    HW111655   2.580   4.751   3.382 -1.5160  0.7169  0.0055
 3840SOL    HW211656   2.588   4.775   3.233 -1.3108  0.4725 -0.0248
 3841SOL     OW11657   1.376   1.799   1.213 -0.2303  0.0707  1.1573
 3841SOL    HW111658   1.347   1.875   1.163  1.9379 -0.0797 -0.4953
 3841SOL    HW211659   1.347   1.816   1.303 -2.9022  1.0985  0.2090
 3842SOL     OW11660   1.962   0.401   1.344 -0.4734 -0.1246 -0.2270
 3842SOL    HW111661   1.894   0.335   1.331 -0.6446 -0.1032  0.5217
 3842SOL    HW211662   1.915   0.484   1.353 -0.4602 -0.2621  1.4702
 3843SOL     OW11663   2.921   3.649   1.628 -0.4590  0.4300  0.0666
 3843SOL    HW111664   2.984   3.663   1.699  1.6988  0.0956 -1.6642
 3843SOL    HW211665   2.903   3.555   1.629  0.4479  0.2384 -0.4825
 3844SOL     OW11666   4.172   4.206   3.940  0.2894  0.5434  0.5570
 3844SOL    HW111667   4.194   4.190   3.848 -0.7180  1.1558  0.1940
 3844SOL    HW211668   4.130   4.293   3.940 -0.1929  0.3256  1.5121
 3845SOL     OW11669   0.195   1.534   2.251 -0.0684  0.5535 -0.5412
 3845SOL    HW111670   0.261   1.494   2.195 -1.4927 -1.4984 -0.8423
 3845SOL    HW211671   0.136   1.579   2.190 -1.0470 -0.8335 -0.6738
 3846SOL     OW11672   0.651   4.430   2.714 -0.0905 -0.8939  0.4555
 3846SOL    HW111673   0.734   4.477   2.711  0.4854 -1.7767  1.7741
 3846SOL    HW211674   0.595   4.477   2.652  0.9257  0.5907  0.6089
 3847SOL     OW11675   0.433   4.784   1.684  0.7268  0.4076  0.5553
 3847SOL    HW111676   0.369   4.784   1.613  2.0802  1.7336 -0.7421
 3847SOL    HW211677   0.420   4.699   1.727 -1.2999  0.2929 -0.1595
 3848SOL     OW11678   0.268   2.898   3.028 -0.2622  0.1019  0.6112
 3848SOL    HW111679   0.282   2.982   2.984 -1.5688 -0.5021 -1.0412
 3848SOL    HW211680   0.343   2.890   3.088  1.1189  1.3846 -0.8450
 3849SOL     OW11681   2.414   2.721   4.067  0.6544 -0.1272  0.2504
 3849SOL    HW111682   2.356   2.768   4.007  0.4014 -1.5669 -0.6738
 3849SOL    HW211683   2.355   2.670   4.122  0.9936 -1.1116 -0.2745
 3850SOL     OW11684   3.707   4.967   2.866 -0.3791 -0.3994 -0.8293
 3850SOL    HW111685   3.640   4.911   2.826 -1.4648  0.0782  0.2366
 3850SOL    HW211686   3.693   4.958   2.960  2.0020 -1.3548 -0.5013
 3851SOL     OW11687   1.962   2.208  -0.001  0.1333  0.5466  0.5617
 3851SOL    HW111688   1.928   2.297   0.009 -0.3385  0.2767  1.4475
 3851SOL    HW211689   1.910   2.155   0.060  0.4872 -0.3199  0.1341
 3852SOL     OW11690   1.375   2.873   1.388  0.1752 -0.1522  0.3445
 3852SOL    HW111691   1.411   2.946   1.337 -0.7741  0.5563  0.6541
 3852SOL    HW211692   1.280   2.878   1.373 -0.0509 -0.3438  1.6220
 3853SOL     OW11693   3.830   1.277   3.009  0.7653 -0.4677 -0.0583
 3853SOL    HW111694   3.843   1.246   2.920  0.7038  1.1063 -0.6589
 3853SOL    HW211695   3.908   1.248   3.057  0.9060 -1.1233 -0.6839
 3854SOL     OW11696   1.877   2.113   1.663  0.8210 -0.4697 -0.5602
 3854SOL    HW111697   1.929   2.052   1.715  2.3936 -1.2975 -2.9270
 3854SOL    HW211698   1.899   2.091   1.572 -1.2668  1.3224 -1.5748
 3855SOL     OW11699   2.706   0.701   2.991  0.1600  0.1910  0.5429
 3855SOL    HW111700   2.693   0.792   2.965  3.2140  0.7069  0.5240
 3855SOL    HW211701   2.655   0.692   3.072 -0.5065  1.7684  0.3272
 3856SOL     OW11702   4.777   3.887   4.758 -0.2355  0.3077 -0.1842
 3856SOL    HW111703   4.855   3.838   4.730  1.3062  2.0993  0.7518
 3856SOL    HW211704   4.707   3.822   4.757  1.1740 -1.2886 -1.4472
 3857SOL     OW11705   0.585   3.722   0.286  0.3720 -0.4875  0.1521
 3857SOL    HW111706   0.583   3.656   0.356 -0.9788  1.0020  1.6350
 3857SOL    HW211707   0.501   3.711   0.242  0.0925  0.2740  0.4776
 3858SOL     OW11708   2.845   1.555   2.648 -0.5801 -0.3421  0.0301
 3858SOL    HW111709   2.896   1.476   2.662 -0.1961 -0.5351 -2.1119
 3858SOL    HW211710   2.907   1.618   2.612 -1.6128 -0.2598 -1.6863
 3859SOL     OW11711   3.892   2.507   0.387  0.3819 -0.4961 -0.0491
 3859SOL    HW111712   3.853   2.490   0.473 -0.5543 -1.5329 -0.6454
 3859SOL    HW211713   3.913   2.420   0.353 -0.9530 -0.2681 -1.6045
 3860SOL     OW11714   2.581   2.996   3.965  0.1622  0.2591 -0.4870
 3860SOL    HW111715   2.663   3.046   3.971 -0.2447  0.8023  1.1161
 3860SOL    HW211716   2.593   2.939   3.889  2.9906 -1.3860  1.0029
 3861SOL     OW11717   2.049   4.738   3.797  0.1226 -0.0784 -0.4953
 3861SOL    HW111718   2.025   4.758   3.888 -0.1722  2.3441 -1.0358
 3861SOL    HW211719   2.144   4.745   3.795  0.0711  0.7312 -0.5278
 3862SOL     OW11720   2.800   1.890   2.559 -0.2266 -1.2997 -0.5500
 3862SOL    HW111721   2.727   1.931   2.606  1.2564 -0.4530  1.1692
 3862SOL    HW211722   2.760   1.847   2.484 -2.1124  2.0027 -1.6496
 3863SOL     OW11723   4.149   3.052   4.422  0.1471 -0.1547 -0.3536
 3863SOL    HW111724   4.190   2.966   4.429  0.7644  0.1939  0.4588
 3863SOL    HW211725   4.093   3.045   4.345 -0.9213 -1.7429  0.4901
 3864SOL     OW11726   4.113   1.356   1.664 -0.0751 -0.0184  0.6763
 3864SOL    HW111727   4.068   1.276   1.636  0.7842 -1.1688  2.3832
 3864SOL    HW211728   4.044   1.421   1.672 -0.5741  0.0040 -2.4737
 3865SOL     OW11729   1.891   2.395   3.579  0.1844  0.0294 -0.2191
 3865SOL    HW111730   1.839   2.399   3.659  0.4948 -0.6684  0.0178
 3865SOL    HW211731   1.934   2.481   3.574  0.6401 -0.1390  0.6742
 3866SOL     OW11732   4.593   3.457   1.027 -0.2989  0.4690  0.0656
 3866SOL    HW111733   4.637   3.510   0.962 -0.0158 -0.2655 -0.3598
 3866SOL    HW211734   4.501   3.454   0.998 -0.7133  2.2070  1.0915
 3867SOL     OW11735   2.167   3.254   2.558 -0.1665  0.1034 -0.2164
 3867SOL    HW111736   2.139   3.221   2.644 -0.3820  0.2750 -0.2188
 3867SOL    HW211737   2.262   3.262   2.565 -0.1328 -0.3240 -0.1475
 3868SOL     OW11738   1.700   4.502   4.225  0.1453 -0.4256 -0.4185
 3868SOL    HW111739   1.682   4.411   4.250  0.9051 -0.4347  0.1124
 3868SOL    HW211740   1.766   4.531   4.287 -4.8351  2.7895  4.2412
 3869SOL     OW11741   0.493   1.531   3.079  0.9463 -0.0889 -0.3527
 3869SOL    HW111742   0.428   1.598   3.058 -2.2739 -2.5453  0.7877
 3869SOL    HW211743   0.566   1.579   3.118 -0.6360  2.7929 -0.6566
 3870SOL     OW11744   1.248   3.095   2.502 -0.2443 -0.0693 -0.7511
 3870SOL    HW111745   1.325   3.142   2.469  0.9058 -0.9612  0.5602
 3870SOL    HW211746   1.266   3.003   2.482  0.7764 -0.7384  2.6928
 3871SOL     OW11747   4.427   4.944   0.495  0.3463  0.5931 -0.4030
 3871SOL    HW111748   4.510   4.897   0.493  0.0212  0.0186 -0.7672
 3871SOL    HW211749   4.451   5.035   0.510  0.9594  0.2416  0.9134
 3872SOL     OW11750   2.691   0.740   2.073 -0.1447  0.0763  0.2647
 3872SOL    HW111751   2.721   0.657   2.110 -1.0416 -0.2038  0.4069
 3872SOL    HW211752   2.673   0.720   1.981 -0.0237  0.2037  0.2136
 3873SOL     OW11753   3.079   1.367   3.182  0.0295  0.2606  0.0882
 3873SOL    HW111754   3.142   1.437   3.199  1.9011 -1.3582  0.1801
 3873SOL    HW211755   3.107   1.328   3.099 -1.1389 -0.2220 -0.1062
 3874SOL     OW11756   0.720   2.108   2.907  0.2017  0.4512  0.5561
 3874SOL    HW111757   0.694   2.144   2.823 -0.2859  0.4952  0.7261
 3874SOL    HW211758   0.645   2.057   2.936  0.2372  0.7167  1.1265
 3875SOL     OW11759   1.536   4.935   4.637  0.5027 -0.4054  0.0304
 3875SOL    HW111760   1.532   4.841   4.618 -1.6808 -0.3645  0.0815
 3875SOL    HW211761   1.527   4.977   4.552 -1.0447 -0.2558  0.2491
 3876SOL     OW11762   3.180   1.968   0.919  0.0921 -0.4828  0.2871
 3876SOL    HW111763   3.168   1.930   1.006  0.8710 -2.8036 -0.5338
 3876SOL    HW211764   3.225   1.899   0.869  3.5980  2.3041 -0.7829
 3877SOL     OW11765   2.604   3.542   4.992 -0.2602 -0.2494  0.0920
 3877SOL    HW111766   2.571   3.517   4.905 -0.6014 -1.6794  0.6116
 3877SOL    HW211767   2.565   3.478   5.052  0.3858  0.4051  1.2418
 3878SOL     OW11768   1.576   1.220   0.407  0.3578 -0.1430  0.5477
 3878SOL    HW111769   1.588   1.139   0.456  3.8100  0.1166  0.3609
 3878SOL    HW211770   1.551   1.285   0.473  0.9157 -0.6511  1.2659
 3879SOL     OW11771   2.409   3.346   1.331  0.3470  0.8875  0.1394
 3879SOL    HW111772   2.407   3.368   1.238  3.4325  1.5635  0.1497
 3879SOL    HW211773   2.349   3.409   1.371 -0.4842  1.0471 -1.2694
 3880SOL     OW11774   4.729   2.722   1.882 -0.2280  0.7526 -0.4722
 3880SOL    HW111775   4.760   2.632   1.876  0.8484  1.0143  0.6378
 3880SOL    HW211776   4.729   2.753   1.792  3.2740  0.8361 -0.5993
 3881SOL     OW11777   3.304   4.204   2.811  0.3305  0.1467 -0.6394
 3881SOL    HW111778   3.363   4.129   2.805  0.1466 -0.0998  0.4269
 3881SOL    HW211779   3.362   4.280   2.816  0.6167 -0.1640  1.3872
 3882SOL     OW11780   3.303   4.376   0.377  0.2122 -0.4230  0.2409
 3882SOL    HW111781   3.219   4.406   0.343 -0.0715 -0.3029  1.0299
 3882SOL    HW211782   3.363   4.384   0.303 -0.7641 -1.8308 -0.7533
 3883SOL     OW11783   2.501   1.317   1.119  0.3294  0.4106  0.0964
 3883SOL    HW111784   2.569   1.350   1.177 -0.2694 -0.7466  1.5227
 3883SOL    HW211785   2.546   1.295   1.038  1.3344  1.2846  0.4039
 3884SOL     OW11786   0.886   0.440   0.123 -0.6860  0.7750  0.3606
 3884SOL    HW111787   0.899   0.356   0.168 -1.6379  1.0153  1.1176
 3884SOL    HW211788   0.910   0.422   0.032  1.6741  0.3567  0.9758
 3885SOL     OW11789   3.254   0.867   1.290 -0.8714  0.6391  0.1977
 3885SOL    HW111790   3.344   0.835   1.292 -0.8331  0.4355 -2.0375
 3885SOL    HW211791   3.202   0.796   1.328 -0.5076 -1.1568 -2.4290
 3886SOL     OW11792   2.372   4.281   4.507  0.7598  0.5750 -0.2615
 3886SOL    HW111793   2.459   4.287   4.547 -0.2652  0.7629  2.1082
 3886SOL    HW211794   2.332   4.206   4.551 -0.9595  1.7005  0.1772
 3887SOL     OW11795   1.869   3.980   1.976 -0.4439 -0.3892  0.7285
 3887SOL    HW111796   1.871   4.075   1.987  0.4900 -0.1337 -1.2720
 3887SOL    HW211797   1.872   3.946   2.065  3.7635  1.4298  1.4979
 3888SOL     OW11798   2.826   0.544   2.479 -0.6401  0.4647 -0.9257
 3888SOL    HW111799   2.773   0.467   2.500  0.3724 -0.5924 -2.0815
 3888SOL    HW211800   2.774   0.618   2.510 -1.2201 -0.7137  1.0736
 3889SOL     OW11801   3.813   0.880   4.343 -0.0402 -0.0651  0.4211
 3889SOL    HW111802   3.727   0.918   4.359  0.4428  0.8426  0.9205
 3889SOL    HW211803   3.803   0.787   4.366 -0.4788  0.3468  2.0119
 3890SOL     OW11804   3.688   2.441   1.920 -0.2235 -0.6888 -0.4030
 3890SOL    HW111805   3.747   2.447   1.996 -0.7976  0.3229 -0.0140
 3890SOL    HW211806   3.614   2.390   1.951 -0.8521  0.4414 -0.0020
 3891SOL     OW11807   0.835   1.237   1.594 -0.2292  0.2818  0.1159
 3891SOL    HW111808   0.850   1.330   1.609  0.0275  0.2260  0.2054
 3891SOL    HW211809   0.838   1.197   1.681 -0.2515  0.1778  0.0692
 3892SOL     OW11810   0.354   4.037   0.576  0.4392  0.9432  0.4924
 3892SOL    HW111811   0.350   4.127   0.607  1.5415  0.7995  1.1223
 3892SOL    HW211812   0.409   4.040   0.498 -0.3390  0.9505 -0.0650
 3893SOL     OW11813   4.279   0.413   4.337  0.3603 -0.1699  0.2139
 3893SOL    HW111814   4.218   0.341   4.349 -1.2322  0.7979 -1.5587
 3893SOL    HW211815   4.224   0.492   4.339  1.7160  0.8289 -0.2147
 3894SOL     OW11816   2.448   2.009   4.855 -0.0325  0.6998  0.3085
 3894SOL    HW111817   2.498   2.058   4.789  0.1264  1.2728  0.8482
 3894SOL    HW211818   2.383   2.072   4.887 -1.6626 -0.2607 -0.9520
 3895SOL     OW11819   0.364   4.282   1.000 -0.4499 -0.3254  0.1427
 3895SOL    HW111820   0.368   4.188   0.983 -0.3302 -0.6617  1.7924
 3895SOL    HW211821   0.279   4.296   1.040 -0.4536  0.2652 -0.0594
 3896SOL     OW11822   0.529   1.285   0.816  0.1391 -0.5055 -0.5507
 3896SOL    HW111823   0.470   1.354   0.845  0.9927 -1.1771  3.2687
 3896SOL    HW211824   0.614   1.329   0.806  1.0560 -1.0160  3.3972
 3897SOL     OW11825   3.645   4.544   3.698 -0.0539 -0.5009 -0.0663
 3897SOL    HW111826   3.700   4.492   3.756 -3.1386 -1.5512  2.2225
 3897SOL    HW211827   3.674   4.634   3.711  2.5863 -1.1624 -0.8101
 3898SOL     OW11828   2.688   3.880   2.484 -0.5039 -0.1656 -0.2807
 3898SOL    HW111829   2.781   3.868   2.500 -0.7143 -0.0093  1.2671
 3898SOL    HW211830   2.657   3.933   2.558 -1.5898  0.8746 -1.4230
 3899SOL     OW11831   0.414   4.779   0.504 -0.2803  0.1972 -0.6920
 3899SOL    HW111832   0.459   4.862   0.523 -1.3257  0.4569  0.8379
 3899SOL    HW211833   0.467   4.712   0.548  0.3947  0.0587 -1.6728
 3900SOL     OW11834   3.414   3.077   0.326  0.2451  0.3610 -0.3155
 3900SOL    HW111835   3.484   3.126   0.282  1.1812  0.0635  0.7753
 3900SOL    HW211836   3.389   3.133   0.400 -0.3940  0.2797 -0.4686
 3901SOL     OW11837   0.373   1.872   3.333 -0.7322 -0.1311  0.6032
 3901SOL    HW111838   0.349   1.779   3.334  0.1960 -0.4147 -0.8603
 3901SOL    HW211839   0.453   1.875   3.281 -1.8287  1.7547 -1.0942
 3902SOL     OW11840   0.375   0.639   0.876  0.0402 -0.1735  0.0742
 3902SOL    HW111841   0.440   0.680   0.934  1.9891 -1.2902 -1.2257
 3902SOL    HW211842   0.312   0.709   0.858  0.7610  0.9031  1.5298
 3903SOL     OW11843   4.145   3.521   3.019  0.2177  0.3899  0.0025
 3903SOL    HW111844   4.099   3.604   3.032 -0.7799 -0.3749  1.5199
 3903SOL    HW211845   4.085   3.454   3.052  1.5195 -0.8301 -0.0156
 3904SOL     OW11846   2.088   1.345   2.258  0.1641 -0.5723 -0.6064
 3904SOL    HW111847   2.073   1.359   2.351  1.2683 -1.3167 -0.3080
 3904SOL    HW211848   2.111   1.432   2.224  3.1628 -0.8329  0.4959
 3905SOL     OW11849   4.897   0.879   4.975 -0.0186 -0.1146 -0.1735
 3905SOL    HW111850   4.881   0.971   4.993  0.3450  0.0447 -0.6511
 3905SOL    HW211851   4.870   0.868   4.884 -1.9008 -0.9168  0.4349
 3906SOL     OW11852   1.587   1.957   4.735 -0.0491 -0.0147  0.1083
 3906SOL    HW111853   1.653   1.897   4.701  1.4318  0.3038  2.2045
 3906SOL    HW211854   1.618   2.044   4.709 -1.3159  0.0029 -1.5040
 3907SOL     OW11855   1.833   2.973   1.303  0.6764  0.6458 -0.3576
 3907SOL    HW111856   1.869   3.061   1.294  0.5911  0.5594 -1.9626
 3907SOL    HW211857   1.819   2.962   1.397 -1.8254  3.3353 -0.2823
 3908SOL     OW11858   1.365   1.414   2.491 -0.2556 -0.5891 -0.0762
 3908SOL    HW111859   1.461   1.419   2.496 -0.2990 -0.4413  0.9345
 3908SOL    HW211860   1.347   1.321   2.480  0.0530 -0.4118 -2.6374
 3909SOL     OW11861   2.963   4.071   4.922  0.9900 -0.1640  0.4121
 3909SOL    HW111862   3.019   4.078   4.845  0.6320  2.2366  0.2888
 3909SOL    HW211863   2.896   4.008   4.898  2.8550 -2.1222  0.0920
 3910SOL     OW11864   4.364   0.370   1.087  0.4638 -0.3881  0.3977
 3910SOL    HW111865   4.299   0.403   1.149  0.5770  0.4251  0.0980
 3910SOL    HW211866   4.332   0.283   1.064  0.3733 -0.6655  1.5134
 3911SOL     OW11867   2.278   0.627   1.293  0.9665  0.3684  0.0574
 3911SOL    HW111868   2.226   0.675   1.229 -0.3266  1.8703  2.0949
 3911SOL    HW211869   2.309   0.550   1.246 -1.8945  0.1529 -1.6934
 3912SOL     OW11870   4.249   3.493   4.198 -0.4504  0.0622 -0.2124
 3912SOL    HW111871   4.272   3.586   4.189 -0.2213 -0.0073 -0.3588
 3912SOL    HW211872   4.228   3.482   4.290  0.7475 -0.0121  0.0759
 3913SOL     OW11873   4.241   0.926   4.980  0.1345  0.3544  0.4201
 3913SOL    HW111874   4.304   0.987   5.019  1.2763 -0.6754  0.2721
 3913SOL    HW211875   4.208   0.971   4.902  0.7308  0.8978  0.4756
 3914SOL     OW11876   1.844   4.556   0.626 -0.3174 -0.2766  0.0526
 3914SOL    HW111877   1.911   4.552   0.694 -0.0924 -0.2590 -0.1675
 3914SOL    HW211878   1.838   4.467   0.592 -1.9178 -0.7902  1.5159
 3915SOL     OW11879   1.761   1.044   3.999 -0.2278 -0.0636 -0.3171
 3915SOL    HW111880   1.723   1.054   3.911 -0.5559 -1.8439 -0.4071
 3915SOL    HW211881   1.811   1.124   4.012 -0.3386  0.3306 -2.0537
 3916SOL     OW11882   3.133   1.725   0.783  0.7938 -0.2453 -0.0491
 3916SOL    HW111883   3.080   1.655   0.822 -0.4226  0.5079 -0.3065
 3916SOL    HW211884   3.215   1.682   0.759  0.7177 -1.2128  1.3101
 3917SOL     OW11885   2.760   1.068   2.587  0.0377 -0.2962 -0.1020
 3917SOL    HW111886   2.754   1.089   2.494  0.1517  0.8976  0.1336
 3917SOL    HW211887   2.832   1.005   2.594  2.0186  1.7922 -0.5300
 3918SOL     OW11888   3.462   4.442   1.585  0.2994  0.1494 -0.0917
 3918SOL    HW111889   3.493   4.505   1.650  2.9054  0.3481 -1.3954
 3918SOL    HW211890   3.529   4.373   1.585  0.5930  0.3329 -2.7436
 3919SOL     OW11891   2.440   1.079   0.462 -0.1148 -0.1470 -0.1466
 3919SOL    HW111892   2.496   1.080   0.539 -1.5355 -0.2890  0.9266
 3919SOL    HW211893   2.384   1.156   0.471 -0.4363 -0.2741 -0.9339
 3920SOL     OW11894   4.933   2.717   0.205  0.1560 -0.0762  0.4874
 3920SOL    HW111895   5.027   2.705   0.219  1.3925  4.6187 -1.6604
 3920SOL    HW211896   4.923   2.718   0.109 -2.0509 -0.1790  0.6575
 3921SOL     OW11897   0.654   0.360   2.159 -0.0211  0.2476  0.1364
 3921SOL    HW111898   0.680   0.307   2.084  1.6419  0.8642  0.2255
 3921SOL    HW211899   0.736   0.384   2.201 -0.8672  0.7771  1.5697
 3922SOL     OW11900   3.393   3.977   0.996  0.6272 -0.0163  0.0352
 3922SOL    HW111901   3.333   3.932   0.937  0.3275  0.4418 -0.0101
 3922SOL    HW211902   3.471   3.921   0.997  0.9159  0.3262 -1.3439
 3923SOL     OW11903   1.008   1.252   3.528  0.2210  0.0053 -0.3696
 3923SOL    HW111904   0.971   1.289   3.608 -1.0529 -0.1117 -0.8765
 3923SOL    HW211905   1.102   1.247   3.545 -0.2622 -3.0039  2.3427
 3924SOL     OW11906   1.371   3.106   3.677 -0.4430  0.1634 -0.0894
 3924SOL    HW111907   1.302   3.081   3.739 -1.1386  1.4328 -0.3111
 3924SOL    HW211908   1.380   3.200   3.688  1.3567  0.0105 -0.0032
 3925SOL     OW11909   1.212   4.817   4.631  0.1011  0.3042 -0.4428
 3925SOL    HW111910   1.136   4.872   4.614  1.3063  2.5153  0.8003
 3925SOL    HW211911   1.200   4.786   4.720  0.5186  0.4518 -0.3320
 3926SOL     OW11912   1.008   4.385   1.446  0.2859  0.2255  0.3647
 3926SOL    HW111913   0.953   4.306   1.449 -0.3276  0.6528  0.7972
 3926SOL    HW211914   0.962   4.443   1.386  0.8807  0.1585 -0.1642
 3927SOL     OW11915   3.149   1.735   4.666  0.4853  0.5791  0.1577
 3927SOL    HW111916   3.234   1.732   4.710  0.1450  0.3368  0.7985
 3927SOL    HW211917   3.128   1.644   4.649  0.1268  0.6104  0.4337
 3928SOL     OW11918   0.527   3.233   0.832  0.1121  0.0092  0.6395
 3928SOL    HW111919   0.491   3.147   0.811  0.3777 -0.0431  0.3967
 3928SOL    HW211920   0.610   3.238   0.784  0.4749  0.0959  1.2623
 3929SOL     OW11921   3.730   2.769   2.819 -0.7208 -0.1811  0.9327
 3929SOL    HW111922   3.779   2.730   2.891  1.1660  0.0826 -0.1380
 3929SOL    HW211923   3.745   2.863   2.827  0.1275 -0.2031 -0.1956
 3930SOL     OW11924   4.184   3.410   2.725 -0.1272  0.2942  0.6415
 3930SOL    HW111925   4.209   3.450   2.808  1.0167  3.3508 -0.9923
 3930SOL    HW211926   4.254   3.348   2.706  2.7126  3.4997 -0.4135
 3931SOL     OW11927   3.635   1.116   1.832  0.0309 -0.3242 -0.3993
 3931SOL    HW111928   3.552   1.141   1.873  0.3375 -0.4006  0.2754
 3931SOL    HW211929   3.657   1.032   1.871  0.3273 -0.3983 -0.7221
 3932SOL     OW11930   3.722   0.147   4.850  0.3372  0.9212 -0.0136
 3932SOL    HW111931   3.690   0.206   4.918 -0.6687  0.1935  0.1730
 3932SOL    HW211932   3.726   0.062   4.893 -0.1694  0.4813 -0.8095
 3933SOL     OW11933   0.338   1.192   2.973  0.3236  0.1251 -0.4339
 3933SOL    HW111934   0.427   1.226   2.962  0.4635  0.2205  0.9109
 3933SOL    HW211935   0.282   1.265   2.946  0.6408  0.5790  0.1210
 3934SOL     OW11936   2.462   2.852   4.528 -0.1910  0.4243 -0.0266
 3934SOL    HW111937   2.486   2.920   4.465 -0.0953  1.7628  1.4023
 3934SOL    HW211938   2.393   2.892   4.581  0.1021 -0.4678  1.0595
 3935SOL     OW11939   4.333   1.009   2.125 -0.4988 -0.4540 -0.3562
 3935SOL    HW111940   4.316   0.930   2.074 -2.4200  0.4835 -1.2755
 3935SOL    HW211941   4.366   0.977   2.209 -0.0825 -2.1485 -1.1226
 3936SOL     OW11942   1.822   3.505   4.027 -0.6626 -0.0159  0.5814
 3936SOL    HW111943   1.738   3.475   4.061  0.0271 -1.4528  1.0918
 3936SOL    HW211944   1.809   3.508   3.932 -0.8936 -1.6206  0.5307
 3937SOL     OW11945   4.530   1.113   1.171 -0.6267 -0.2958  0.6220
 3937SOL    HW111946   4.517   1.083   1.261 -2.2372 -1.5333  0.0311
 3937SOL    HW211947   4.617   1.080   1.148 -0.0294  0.3723  1.8268
 3938SOL     OW11948   0.881   2.819   1.390 -0.3575 -0.1530 -0.2614
 3938SOL    HW111949   0.915   2.837   1.303  1.8190 -2.1582  0.0891
 3938SOL    HW211950   0.838   2.734   1.383 -2.6268  0.8757  0.0771
 3939SOL     OW11951   1.014   2.125   3.414 -0.0480  0.1947 -0.4359
 3939SOL    HW111952   1.040   2.164   3.497  0.7281 -1.1031 -0.0424
 3939SOL    HW211953   0.973   2.042   3.438 -0.0001 -0.1080 -1.3412
 3940SOL     OW11954   4.092   1.856   0.301  0.3509 -0.5061 -0.1387
 3940SOL    HW111955   4.100   1.860   0.396 -0.7745 -0.4364 -0.0332
 3940SOL    HW211956   3.998   1.863   0.285  0.6697  2.1152 -1.3699
 3941SOL     OW11957   4.475   2.628   2.014 -0.1821  0.0000  0.4327
 3941SOL    HW111958   4.560   2.665   1.992 -0.2416  0.3677  0.8104
 3941SOL    HW211959   4.496   2.550   2.065 -0.0435  1.8741  3.4675
 3942SOL     OW11960   4.411   4.673   4.417  0.0183  0.5392 -0.0503
 3942SOL    HW111961   4.381   4.692   4.329  0.8010  1.9371 -0.0417
 3942SOL    HW211962   4.358   4.728   4.474 -1.7766 -1.6875  0.5871
 3943SOL     OW11963   3.133   3.156   4.831  0.4483  0.1064 -0.4544
 3943SOL    HW111964   3.174   3.139   4.915  2.3895  2.1198 -0.8811
 3943SOL    HW211965   3.182   3.103   4.768  0.6031  0.4145 -0.6008
 3944SOL     OW11966   0.859   4.842   1.611 -0.2753  0.2395  0.0033
 3944SOL    HW111967   0.872   4.750   1.588 -0.1592  0.2582 -0.0039
 3944SOL    HW211968   0.817   4.839   1.697  2.7620  0.2247  1.6113
 3945SOL     OW11969   0.469   4.662   3.429 -0.0952  0.0589 -0.0572
 3945SOL    HW111970   0.471   4.610   3.348 -1.8177  2.1433 -1.5511
 3945SOL    HW211971   0.558   4.696   3.438  0.0623 -0.0062 -1.2168
 3946SOL     OW11972   3.840   4.909   2.482  0.0389 -0.1112  0.5145
 3946SOL    HW111973   3.889   4.932   2.562  1.1207 -0.5753  0.0082
 3946SOL    HW211974   3.904   4.921   2.411 -1.6248  2.8830 -0.6442
 3947SOL     OW11975   5.007   4.863   2.830 -0.2480 -0.7110 -0.9545
 3947SOL    HW111976   4.941   4.930   2.809  0.4457 -0.6265 -3.0943
 3947SOL    HW211977   4.961   4.802   2.888 -3.1498 -2.0239 -4.2657
 3948SOL     OW11978   0.468   2.511   2.871 -0.3585  0.5976 -0.0104
 3948SOL    HW111979   0.513   2.534   2.953 -0.9986 -1.1786  0.8919
 3948SOL    HW211980   0.394   2.571   2.867 -1.7202 -0.7979  2.0350
 3949SOL     OW11981   3.438   3.474   2.832 -0.3960 -0.4132 -0.2302
 3949SOL    HW111982   3.467   3.544   2.773  0.7967 -1.9032 -1.5284
 3949SOL    HW211983   3.513   3.415   2.837 -0.6595 -0.6203  2.4353
 3950SOL     OW11984   4.570   2.286   3.916  0.5348 -0.5248  0.1425
 3950SOL    HW111985   4.584   2.274   4.010  2.1700  0.8857  0.1388
 3950SOL    HW211986   4.531   2.373   3.909  2.9299  0.5771 -0.5640
 3951SOL     OW11987   3.988   3.924   1.168 -0.2328 -0.4425 -0.5524
 3951SOL    HW111988   4.016   3.991   1.231 -2.0068 -0.6612  0.5399
 3951SOL    HW211989   4.061   3.917   1.107 -0.3387  3.2624 -1.3618
 3952SOL     OW11990   1.160   0.883   2.425 -0.2646  0.2026  0.2863
 3952SOL    HW111991   1.097   0.945   2.388 -1.0983  0.8747  2.6421
 3952SOL    HW211992   1.108   0.806   2.447  0.4585 -0.7127 -1.0329
 3953SOL     OW11993   3.112   0.597   3.627  0.6051 -0.5774  0.2856
 3953SOL    HW111994   3.093   0.689   3.612  0.2481 -0.8324 -0.9134
 3953SOL    HW211995   3.138   0.563   3.541 -0.1921 -1.8124  0.5090
 3954SOL     OW11996   4.422   1.964   2.658  0.7743 -0.4746  0.3399
 3954SOL    HW111997   4.416   1.907   2.582  1.4914  0.4862 -0.4515
 3954SOL    HW211998   4.452   1.906   2.728 -1.6092 -1.7777  0.4058
 3955SOL     OW11999   0.194   2.032   1.445 -0.1376  0.3123  0.1654
 3955SOL    HW112000   0.138   2.104   1.416 -1.8215 -1.2791 -0.7805
 3955SOL    HW212001   0.261   2.024   1.377 -0.2707  0.6506 -0.0073
 3956SOL     OW12002   0.575   1.970   0.311 -0.1321 -0.6348  0.2592
 3956SOL    HW112003   0.492   1.991   0.268  1.2271  2.2194 -1.2697
 3956SOL    HW212004   0.553   1.958   0.403 -2.1422  0.7462  0.0074
 3957SOL     OW12005   1.369   4.889   2.847 -0.4264 -0.5118  0.4269
 3957SOL    HW112006   1.353   4.927   2.761 -1.3451 -0.9658  0.3833
 3957SOL    HW212007   1.380   4.795   2.830 -1.2981 -0.7054  0.8669
 3958SOL     OW12008   0.445   0.250   4.915  0.1014 -0.3192 -0.1448
 3958SOL    HW112009   0.404   0.166   4.893 -0.3908  0.1882 -1.2310
 3958SOL    HW212010   0.425   0.262   5.008 -1.7367 -0.3790 -0.4888
 3959SOL     OW12011   3.226   1.397   0.694  0.0099 -0.1457 -0.8817
 3959SOL    HW112012   3.146   1.423   0.740  1.2231  0.4064  1.0243
 3959SOL    HW212013   3.263   1.479   0.662 -0.7369 -0.5042 -2.8659
 3960SOL     OW12014   1.406   3.473   2.205 -0.0167  0.1825  0.6052
 3960SOL    HW112015   1.349   3.475   2.282 -0.7587 -2.9057  0.2926
 3960SOL    HW212016   1.368   3.405   2.149  1.2727  1.3807 -1.8890
 3961SOL     OW12017   2.668   4.327   0.054 -0.4990  0.4973 -0.5935
 3961SOL    HW112018   2.690   4.251   0.108  1.0034  1.3837  0.1111
 3961SOL    HW212019   2.573   4.328   0.052 -0.5792 -0.2115  1.1409
 3962SOL     OW12020   1.664  -0.010   1.974  0.0752 -0.0911  0.2981
 3962SOL    HW112021   1.745   0.041   1.971  0.3684 -0.5388  0.5331
 3962SOL    HW212022   1.618   0.023   2.051  0.5648 -0.6213  0.8276
 3963SOL     OW12023   2.533   0.061   2.594 -0.1320 -0.3519 -0.0316
 3963SOL    HW112024   2.594   0.008   2.542  0.6243  1.0290 -0.6135
 3963SOL    HW212025   2.482  -0.003   2.644  1.3120 -1.5791 -0.0617
 3964SOL     OW12026   0.273   1.033   1.082 -0.0234 -0.2545  0.5357
 3964SOL    HW112027   0.316   1.046   0.998 -0.9355 -2.3364 -0.3070
 3964SOL    HW212028   0.335   1.067   1.146  0.4327  1.9479 -0.9678
 3965SOL     OW12029   0.621   2.134   2.235  0.3766 -0.0724  0.1772
 3965SOL    HW112030   0.630   2.167   2.325 -0.2075  0.7430 -0.0510
 3965SOL    HW212031   0.613   2.213   2.182  0.2594 -0.5669 -0.5442
 3966SOL     OW12032   2.853   1.225   1.629 -0.1366  0.4338 -0.1463
 3966SOL    HW112033   2.883   1.139   1.600 -0.3814  0.6074 -0.9304
 3966SOL    HW212034   2.760   1.213   1.646 -0.1323  0.4981 -0.0781
 3967SOL     OW12035   4.771   0.470   3.268 -0.8773 -0.2594  0.0632
 3967SOL    HW112036   4.814   0.384   3.261  4.4513  2.0649 -0.6863
 3967SOL    HW212037   4.734   0.485   3.182  0.8199 -0.7219 -0.7969
 3968SOL     OW12038   0.619   4.431   1.208  0.0384 -0.5147 -0.3888
 3968SOL    HW112039   0.564   4.353   1.199 -0.9652 -0.2404  2.3660
 3968SOL    HW212040   0.565   4.502   1.175 -1.0113 -0.3817  1.4643
 3969SOL     OW12041   2.156   0.571   3.352  0.2781 -0.0374 -0.6716
 3969SOL    HW112042   2.208   0.503   3.395  1.3423  0.7777 -0.6201
 3969SOL    HW212043   2.077   0.526   3.324 -0.1821 -0.7702  1.5515
 3970SOL     OW12044   1.713   1.507   4.004  0.7026  0.5386 -0.3520
 3970SOL    HW112045   1.649   1.493   3.934  0.1073 -0.4084  0.3653
 3970SOL    HW212046   1.659   1.519   4.083  1.3714  1.3544 -0.0060
 3971SOL     OW12047   0.219   4.144   2.534 -0.2714  0.1749  0.0952
 3971SOL    HW112048   0.197   4.098   2.615  1.7602  0.3736  0.8423
 3971SOL    HW212049   0.230   4.075   2.469  2.8893 -0.5807  1.2297
 3972SOL     OW12050   3.062   4.509   3.225  0.0126  0.5826  0.3950
 3972SOL    HW112051   3.150   4.486   3.194 -0.5107  0.0686 -0.7621
 3972SOL    HW212052   3.072   4.597   3.262  0.7319  1.1454 -1.0467
 3973SOL     OW12053   4.243   0.562   3.247  0.2176  0.0496  0.1823
 3973SOL    HW112054   4.184   0.536   3.176 -0.3982 -0.1698  0.7699
 3973SOL    HW212055   4.319   0.599   3.202 -0.3291  0.2651 -0.5856
 3974SOL     OW12056   0.584   2.476   4.742 -0.3631 -0.7482  0.1490
 3974SOL    HW112057   0.515   2.416   4.772 -0.7668 -0.3340  0.0612
 3974SOL    HW212058   0.536   2.552   4.707  0.1453 -0.1265  0.7711
 3975SOL     OW12059   4.691   3.195   1.046 -0.4285 -0.0790  0.4495
 3975SOL    HW112060   4.690   3.291   1.037 -0.9287  0.4678  4.3564
 3975SOL    HW212061   4.783   3.171   1.037 -0.4466  0.4909 -1.9413
 3976SOL     OW12062   4.526   3.645   4.254  0.3391  0.2413  0.0527
 3976SOL    HW112063   4.491   3.706   4.189  0.6034  1.7901  1.3147
 3976SOL    HW212064   4.594   3.597   4.207  1.3233  2.1162 -0.5658
 3977SOL     OW12065   1.673   3.843   2.150  0.5560 -0.2404 -0.4325
 3977SOL    HW112066   1.660   3.776   2.217 -0.7352 -0.7932 -1.1896
 3977SOL    HW212067   1.653   3.926   2.194 -3.0455 -0.7769 -0.6929
 3978SOL     OW12068   0.546   1.016   3.447  0.0806 -0.3754 -0.0036
 3978SOL    HW112069   0.510   1.036   3.361  2.3418  0.5137 -0.8168
 3978SOL    HW212070   0.638   1.041   3.441  1.6645 -5.0458  1.0323
 3979SOL     OW12071   0.076   2.637   2.749  0.1686  0.2100  0.1741
 3979SOL    HW112072   0.094   2.549   2.715 -0.1877  0.7592 -1.5397
 3979SOL    HW212073   0.017   2.676   2.685  2.0223  2.4672 -0.2935
 3980SOL     OW12074   3.154   1.939   3.396  0.2196  0.4813  0.9846
 3980SOL    HW112075   3.176   1.944   3.489  1.1204 -2.3269  1.0100
 3980SOL    HW212076   3.236   1.920   3.352 -0.4453  0.2174 -0.1923
 3981SOL     OW12077   4.043   2.817   3.526  0.6627  0.7368  0.3262
 3981SOL    HW112078   4.023   2.724   3.527  2.8391  0.2090 -0.0148
 3981SOL    HW212079   3.983   2.855   3.591  0.4354 -1.0560  1.2241
 3982SOL     OW12080   4.487   1.813   2.250  0.3834 -0.1779 -0.2086
 3982SOL    HW112081   4.548   1.787   2.181 -0.1219 -2.8012  0.1977
 3982SOL    HW212082   4.542   1.851   2.318  1.3439 -0.7770 -0.6269
 3983SOL     OW12083   4.044   0.674   1.124  0.0352 -0.2767 -0.4041
 3983SOL    HW112084   4.046   0.746   1.061  0.5135 -0.1420 -0.2398
 3983SOL    HW212085   4.128   0.680   1.170 -1.0164  0.7412  1.5071
 3984SOL     OW12086   1.539   3.736   0.094  0.2682  0.2891 -0.5241
 3984SOL    HW112087   1.500   3.649   0.098  0.4314  0.1147 -2.0646
 3984SOL    HW212088   1.469   3.793   0.063  1.1201 -0.0227 -3.2945
 3985SOL     OW12089   3.694   3.154   0.256 -0.4801  0.1982 -0.2129
 3985SOL    HW112090   3.670   3.193   0.340  0.1210 -0.7473  0.4139
 3985SOL    HW212091   3.739   3.224   0.209 -0.2146  0.5372  0.5300
 3986SOL     OW12092   0.078   3.323   3.785  0.3833  0.7904 -0.2023
 3986SOL    HW112093   0.074   3.232   3.754 -1.2737  0.5075  0.7138
 3986SOL    HW212094   0.170   3.346   3.779  1.4511 -2.0174  2.5071
 3987K        K12095   3.749   3.296   0.759 -0.2573 -0.0264 -0.2752
 3988K        K12096   0.539   0.291   3.402 -0.0373  0.0805  0.2406
 3989K        K12097   4.251   2.807   0.022 -0.2655  0.2374 -0.0549
 3990K        K12098   1.789   4.003   0.856 -0.4606  0.1292 -0.3905
 3991K        K12099   2.698   1.521   1.463 -0.2327  0.0027  0.1178
 3992K        K12100   3.608   0.077   4.616  0.4152  0.0679 -0.3647
 3993K        K12101   3.852   4.314   3.144  0.1204  0.0460  0.1506
 3994K        K12102   0.125   4.591   0.902  0.4329 -0.3293  0.1915
 3995K        K12103   3.787   4.844   4.216 -0.0856 -0.1603  0.0113
 3996K        K12104   4.119   1.477   4.339  0.6684 -0.2407 -0.2334
 3997K        K12105   2.670   1.456   3.934 -0.2176 -0.5669 -0.0028
 3998K        K12106   1.182   1.601   2.160  0.2090  0.0866  0.2970
 3999K        K12107   4.004   4.484   1.521 -0.1586  0.0784 -0.1239
 4000CL      CL12108   2.057   4.059   0.766 -0.1031  0.0876 -0.0581
 4001CL      CL12109   4.824   1.675   2.779 -0.1119 -0.1323 -0.1934
 4002CL      CL12110   4.175   1.314   1.244 -0.1996  0.2260 -0.0159
 4003CL      CL12111   0.411   0.233   3.668 -0.4009  0.3630 -0.3091
 4004CL      CL12112   2.395   0.895   4.106 -0.7132 -0.1009 -0.4751
 4005CL      CL12113   4.069   4.525   1.234 -0.1230 -0.0397 -0.5065
 4006CL      CL12114   3.588   3.304   0.509  0.5806 -0.4080  0.5803
 4007CL      CL12115   4.703   1.782   4.643 -0.1385  0.2415 -0.0931
 4008CL      CL12116   0.357   0.614   1.316 -0.0268  0.3345 -0.5302
 4009CL      CL12117   4.413   3.532   0.364 -0.2811  0.4223  0.3067
 4010CL      CL12118   3.561   4.997   4.314 -0.0222  0.1171  0.7279
   5.00000   5.00000   5.00000
