CLN025
12118
    1TYR      N    1   2.560   2.949   3.030
    1TYR     H1    2   2.462   2.937   3.005
    1TYR     H2    3   2.591   2.860   3.067
    1TYR     H3    4   2.569   3.019   3.102
    1TYR     CA    5   2.639   2.983   2.911
    1TYR     HA    6   2.607   3.079   2.873
    1TYR     CB    7   2.790   2.988   2.940
    1TYR    HB1    8   2.816   2.907   3.008
    1TYR    HB2    9   2.813   3.082   2.991
    1TYR     CG   10   2.879   2.975   2.817
    1TYR    CD1   11   2.917   3.088   2.742
    1TYR    HD1   12   2.888   3.187   2.773
    1TYR    CE1   13   2.994   3.073   2.625
    1TYR    HE1   14   3.022   3.159   2.566
    1TYR     CZ   15   3.034   2.944   2.583
    1TYR     OH   16   3.111   2.930   2.471
    1TYR     HH   17   3.142   2.839   2.463
    1TYR    CE2   18   2.999   2.831   2.659
    1TYR    HE2   19   3.028   2.732   2.628
    1TYR    CD2   20   2.922   2.847   2.776
    1TYR    HD2   21   2.894   2.760   2.833
    1TYR      C   22   2.605   2.880   2.807
    1TYR      O   23   2.633   2.762   2.829
    2TYR      N   24   2.539   2.921   2.699
    2TYR      H   25   2.522   3.019   2.684
    2TYR     CA   26   2.482   2.827   2.602
    2TYR     HA   27   2.409   2.766   2.654
    2TYR     CB   28   2.410   2.910   2.494
    2TYR    HB1   29   2.485   2.967   2.439
    2TYR    HB2   30   2.343   2.980   2.543
    2TYR     CG   31   2.328   2.828   2.397
    2TYR    CD1   32   2.217   2.756   2.445
    2TYR    HD1   33   2.193   2.760   2.550
    2TYR    CE1   34   2.138   2.682   2.356
    2TYR    HE1   35   2.052   2.627   2.391
    2TYR     CZ   36   2.169   2.680   2.219
    2TYR     OH   37   2.086   2.616   2.134
    2TYR     HH   38   2.118   2.618   2.042
    2TYR    CE2   39   2.281   2.751   2.172
    2TYR    HE2   40   2.305   2.749   2.067
    2TYR    CD2   41   2.359   2.827   2.260
    2TYR    HD2   42   2.442   2.886   2.222
    2TYR      C   43   2.589   2.735   2.542
    2TYR      O   44   2.699   2.781   2.514
    3ASP      N   45   2.556   2.608   2.516
    3ASP      H   46   2.465   2.573   2.540
    3ASP     CA   47   2.647   2.516   2.445
    3ASP     HA   48   2.745   2.564   2.437
    3ASP     CB   49   2.674   2.389   2.527
    3ASP    HB1   50   2.587   2.324   2.526
    3ASP    HB2   51   2.696   2.417   2.630
    3ASP     CG   52   2.796   2.316   2.469
    3ASP    OD1   53   2.910   2.363   2.489
    3ASP    OD2   54   2.778   2.214   2.399
    3ASP      C   55   2.597   2.490   2.301
    3ASP      O   56   2.533   2.387   2.273
    4PRO      N   57   2.625   2.583   2.207
    4PRO     CD   58   2.693   2.710   2.226
    4PRO    HD1   59   2.785   2.699   2.284
    4PRO    HD2   60   2.626   2.780   2.275
    4PRO     CG   61   2.727   2.763   2.087
    4PRO    HG1   62   2.826   2.726   2.058
    4PRO    HG2   63   2.724   2.872   2.084
    4PRO     CB   64   2.620   2.700   1.999
    4PRO    HB1   65   2.652   2.693   1.895
    4PRO    HB2   66   2.529   2.758   2.007
    4PRO     CA   67   2.600   2.562   2.064
    4PRO     HA   68   2.497   2.530   2.048
    4PRO      C   69   2.694   2.457   2.003
    4PRO      O   70   2.669   2.409   1.893
    5GLU      N   71   2.803   2.423   2.074
    5GLU      H   72   2.814   2.463   2.166
    5GLU     CA   73   2.908   2.333   2.027
    5GLU     HA   74   2.932   2.361   1.924
    5GLU     CB   75   3.034   2.353   2.112
    5GLU    HB1   76   3.011   2.332   2.216
    5GLU    HB2   77   3.066   2.457   2.103
    5GLU     CG   78   3.149   2.262   2.065
    5GLU    HG1   79   3.162   2.275   1.957
    5GLU    HG2   80   3.123   2.158   2.084
    5GLU     CD   81   3.279   2.293   2.137
    5GLU    OE1   82   3.383   2.313   2.070
    5GLU    OE2   83   3.281   2.292   2.262
    5GLU      C   84   2.864   2.185   2.023
    5GLU      O   85   2.897   2.116   1.926
    6THR      N   86   2.789   2.137   2.123
    6THR      H   87   2.778   2.193   2.208
    6THR     CA   88   2.730   2.002   2.123
    6THR     HA   89   2.776   1.943   2.044
    6THR     CB   90   2.756   1.929   2.255
    6THR     HB   91   2.725   1.991   2.339
    6THR    CG2   92   2.684   1.795   2.268
    6THR   HG21   93   2.717   1.744   2.358
    6THR   HG22   94   2.576   1.811   2.276
    6THR   HG23   95   2.703   1.733   2.181
    6THR    OG1   96   2.894   1.900   2.265
    6THR    HG1   97   2.908   1.860   2.351
    6THR      C   98   2.581   2.005   2.091
    6THR      O   99   2.537   1.929   2.004
    7GLY      N  100   2.501   2.089   2.158
    7GLY      H  101   2.543   2.155   2.223
    7GLY     CA  102   2.354   2.084   2.146
    7GLY    HA1  103   2.325   1.995   2.091
    7GLY    HA2  104   2.321   2.169   2.087
    7GLY      C  105   2.277   2.083   2.278
    7GLY      O  106   2.178   2.009   2.287
    8THR      N  107   2.319   2.160   2.378
    8THR      H  108   2.398   2.221   2.363
    8THR     CA  109   2.256   2.162   2.512
    8THR     HA  110   2.158   2.115   2.505
    8THR     CB  111   2.339   2.081   2.614
    8THR     HB  112   2.430   2.135   2.636
    8THR    CG2  113   2.261   2.053   2.742
    8THR   HG21  114   2.317   1.985   2.806
    8THR   HG22  115   2.246   2.146   2.797
    8THR   HG23  116   2.164   2.008   2.719
    8THR    OG1  117   2.375   1.954   2.564
    8THR    HG1  118   2.432   1.914   2.630
    8THR      C  119   2.235   2.306   2.562
    8THR      O  120   2.321   2.392   2.544
    9TRP      N  121   2.120   2.334   2.625
    9TRP      H  122   2.055   2.259   2.644
    9TRP     CA  123   2.086   2.469   2.673
    9TRP     HA  124   2.133   2.541   2.606
    9TRP     CB  125   1.933   2.491   2.664
    9TRP    HB1  126   1.887   2.478   2.762
    9TRP    HB2  127   1.892   2.414   2.600
    9TRP     CG  128   1.888   2.622   2.605
    9TRP    CD1  129   1.800   2.634   2.502
    9TRP    HD1  130   1.751   2.552   2.451
    9TRP    NE1  131   1.788   2.767   2.466
    9TRP    HE1  132   1.729   2.801   2.390
    9TRP    CE2  133   1.870   2.847   2.542
    9TRP    CZ2  134   1.898   2.984   2.539
    9TRP    HZ2  135   1.851   3.047   2.464
    9TRP    CH2  136   1.987   3.038   2.634
    9TRP    HH2  137   2.012   3.143   2.632
    9TRP    CZ3  138   2.043   2.954   2.731
    9TRP    HZ3  139   2.113   2.994   2.804
    9TRP    CE3  140   2.013   2.817   2.734
    9TRP    HE3  141   2.057   2.756   2.812
    9TRP    CD2  142   1.929   2.758   2.637
    9TRP      C  143   2.143   2.493   2.814
    9TRP      O  144   2.098   2.430   2.910
   10TYR      N  145   2.243   2.581   2.827
   10TYR      H  146   2.273   2.632   2.746
   10TYR     CA  147   2.323   2.600   2.949
   10TYR     HA  148   2.277   2.546   3.032
   10TYR     CB  149   2.462   2.540   2.926
   10TYR    HB1  150   2.534   2.594   2.987
   10TYR    HB2  151   2.491   2.554   2.821
   10TYR     CG  152   2.477   2.394   2.963
   10TYR    CD1  153   2.469   2.358   3.098
   10TYR    HD1  154   2.451   2.435   3.173
   10TYR    CE1  155   2.486   2.224   3.137
   10TYR    HE1  156   2.481   2.197   3.240
   10TYR     CZ  157   2.513   2.126   3.040
   10TYR     OH  158   2.527   1.996   3.077
   10TYR     HH  159   2.532   1.938   2.999
   10TYR    CE2  160   2.524   2.163   2.904
   10TYR    HE2  161   2.548   2.088   2.830
   10TYR    CD2  162   2.504   2.297   2.865
   10TYR    HD2  163   2.513   2.326   2.761
   10TYR      C  164   2.333   2.744   3.001
   10TYR    OC1  165   2.329   2.839   2.919
   10TYR    OC2  166   2.357   2.760   3.122
   11SOL     OW  167   0.245   0.661   0.121
   11SOL    HW1  168   0.310   0.595   0.145
   11SOL    HW2  169   0.163   0.626   0.155
   12SOL     OW  170   0.212   0.226   1.008
   12SOL    HW1  171   0.289   0.241   0.953
   12SOL    HW2  172   0.150   0.294   0.980
   13SOL     OW  173   0.053   0.367   0.586
   13SOL    HW1  174   0.114   0.356   0.659
   13SOL    HW2  175   0.076   0.298   0.524
   14SOL     OW  176   0.520   1.325   1.154
   14SOL    HW1  177   0.540   1.233   1.169
   14SOL    HW2  178   0.604   1.370   1.161
   15SOL     OW  179   1.495   1.513   0.731
   15SOL    HW1  180   1.415   1.461   0.738
   15SOL    HW2  181   1.561   1.451   0.699
   16SOL     OW  182   1.123   0.660   0.704
   16SOL    HW1  183   1.151   0.750   0.723
   16SOL    HW2  184   1.078   0.666   0.620
   17SOL     OW  185   1.723   0.678   0.262
   17SOL    HW1  186   1.750   0.588   0.245
   17SOL    HW2  187   1.664   0.672   0.338
   18SOL     OW  188   0.787   1.122   1.031
   18SOL    HW1  189   0.851   1.118   1.102
   18SOL    HW2  190   0.801   1.208   0.991
   19SOL     OW  191   0.868   0.759   1.793
   19SOL    HW1  192   0.817   0.791   1.868
   19SOL    HW2  193   0.918   0.686   1.828
   20SOL     OW  194   0.693   0.973   0.661
   20SOL    HW1  195   0.615   1.014   0.697
   20SOL    HW2  196   0.714   1.024   0.583
   21SOL     OW  197   0.683   1.115   1.813
   21SOL    HW1  198   0.626   1.192   1.805
   21SOL    HW2  199   0.686   1.078   1.725
   22SOL     OW  200   0.282   1.432   1.037
   22SOL    HW1  201   0.335   1.491   0.983
   22SOL    HW2  202   0.345   1.386   1.091
   23SOL     OW  203   1.463   1.568   1.312
   23SOL    HW1  204   1.511   1.485   1.305
   23SOL    HW2  205   1.399   1.553   1.382
   24SOL     OW  206   0.432   0.415   1.516
   24SOL    HW1  207   0.513   0.441   1.558
   24SOL    HW2  208   0.426   0.469   1.437
   25SOL     OW  209   1.609   0.462   0.708
   25SOL    HW1  210   1.621   0.421   0.795
   25SOL    HW2  211   1.516   0.451   0.690
   26SOL     OW  212   0.205   1.676   0.559
   26SOL    HW1  213   0.119   1.705   0.591
   26SOL    HW2  214   0.197   1.682   0.463
   27SOL     OW  215   1.169   1.369   1.679
   27SOL    HW1  216   1.159   1.345   1.771
   27SOL    HW2  217   1.128   1.297   1.631
   28SOL     OW  218   0.343   1.433   0.591
   28SOL    HW1  219   0.300   1.518   0.588
   28SOL    HW2  220   0.273   1.371   0.610
   29SOL     OW  221   0.224   1.079   0.937
   29SOL    HW1  222   0.304   1.082   0.884
   29SOL    HW2  223   0.242   1.014   1.004
   30SOL     OW  224   0.630   1.774   1.452
   30SOL    HW1  225   0.718   1.744   1.471
   30SOL    HW2  226   0.635   1.870   1.456
   31SOL     OW  227   0.577   0.933   0.159
   31SOL    HW1  228   0.652   0.971   0.113
   31SOL    HW2  229   0.520   0.901   0.089
   32SOL     OW  230   1.607   0.107   1.484
   32SOL    HW1  231   1.533   0.089   1.541
   32SOL    HW2  232   1.611   0.203   1.479
   33SOL     OW  233   0.077   0.635   0.524
   33SOL    HW1  234   0.088   0.679   0.609
   33SOL    HW2  235   0.067   0.543   0.547
   34SOL     OW  236   1.879   1.745   0.350
   34SOL    HW1  237   1.883   1.840   0.336
   34SOL    HW2  238   1.785   1.725   0.346
   35SOL     OW  239   4.963   1.570   0.143
   35SOL    HW1  240   5.036   1.614   0.187
   35SOL    HW2  241   4.943   1.495   0.198
   36SOL     OW  242   1.752   0.920   0.580
   36SOL    HW1  243   1.785   0.880   0.661
   36SOL    HW2  244   1.671   0.963   0.606
   37SOL     OW  245   1.618   1.138   0.409
   37SOL    HW1  246   1.645   1.203   0.474
   37SOL    HW2  247   1.700   1.107   0.371
   38SOL     OW  248   0.091   0.771   1.623
   38SOL    HW1  249   0.079   0.856   1.666
   38SOL    HW2  250   0.184   0.768   1.600
   39SOL     OW  251   0.576   1.376   0.736
   39SOL    HW1  252   0.488   1.395   0.703
   39SOL    HW2  253   0.633   1.389   0.660
   40SOL     OW  254   1.327   1.210   1.402
   40SOL    HW1  255   1.243   1.255   1.408
   40SOL    HW2  256   1.321   1.157   1.322
   41SOL     OW  257   0.838   4.924   0.580
   41SOL    HW1  258   0.906   4.968   0.630
   41SOL    HW2  259   0.761   4.981   0.589
   42SOL     OW  260   0.216   1.002   1.237
   42SOL    HW1  261   0.218   0.994   1.332
   42SOL    HW2  262   0.163   1.080   1.221
   43SOL     OW  263   1.475   0.971   0.218
   43SOL    HW1  264   1.533   1.014   0.282
   43SOL    HW2  265   1.535   0.919   0.164
   44SOL     OW  266   1.156   1.780   1.607
   44SOL    HW1  267   1.128   1.815   1.692
   44SOL    HW2  268   1.174   1.858   1.555
   45SOL     OW  269   0.341   0.296   1.840
   45SOL    HW1  270   0.252   0.295   1.806
   45SOL    HW2  271   0.389   0.235   1.784
   46SOL     OW  272   1.432   1.411   0.991
   46SOL    HW1  273   1.477   1.476   0.937
   46SOL    HW2  274   1.447   1.328   0.946
   47SOL     OW  275   1.720   1.730   0.644
   47SOL    HW1  276   1.766   1.808   0.611
   47SOL    HW2  277   1.633   1.735   0.606
   48SOL     OW  278   0.620   0.695   0.291
   48SOL    HW1  279   0.555   0.707   0.360
   48SOL    HW2  280   0.618   0.777   0.242
   49SOL     OW  281   1.257   0.335   0.928
   49SOL    HW1  282   1.339   0.328   0.976
   49SOL    HW2  283   1.281   0.372   0.843
   50SOL     OW  284   1.580   1.709   0.328
   50SOL    HW1  285   1.514   1.649   0.364
   50SOL    HW2  286   1.549   1.796   0.353
   51SOL     OW  287   0.754   0.605   1.439
   51SOL    HW1  288   0.747   0.579   1.531
   51SOL    HW2  289   0.838   0.571   1.410
   52SOL     OW  290   1.369   0.481   1.677
   52SOL    HW1  291   1.383   0.529   1.595
   52SOL    HW2  292   1.428   0.406   1.671
   53SOL     OW  293   0.941   0.890   1.562
   53SOL    HW1  294   0.973   0.974   1.597
   53SOL    HW2  295   0.912   0.841   1.639
   54SOL     OW  296   0.980   0.502   1.279
   54SOL    HW1  297   1.063   0.454   1.282
   54SOL    HW2  298   0.975   0.538   1.191
   55SOL     OW  299   1.057   0.692   0.432
   55SOL    HW1  300   1.123   0.759   0.412
   55SOL    HW2  301   1.093   0.611   0.397
   56SOL     OW  302   0.052   0.814   0.750
   56SOL    HW1  303   0.040   0.829   0.843
   56SOL    HW2  304   0.022   0.895   0.709
   57SOL     OW  305   0.092   1.837   1.599
   57SOL    HW1  306   0.035   1.792   1.537
   57SOL    HW2  307   0.179   1.800   1.582
   58SOL     OW  308   0.785   0.317   0.169
   58SOL    HW1  309   0.829   0.388   0.216
   58SOL    HW2  310   0.851   0.248   0.162
   59SOL     OW  311   1.733   0.543   1.841
   59SOL    HW1  312   1.761   0.634   1.832
   59SOL    HW2  313   1.645   0.548   1.877
   60SOL     OW  314   1.385   1.114   0.550
   60SOL    HW1  315   1.466   1.120   0.499
   60SOL    HW2  316   1.324   1.173   0.504
   61SOL     OW  317   0.534   0.156   0.816
   61SOL    HW1  318   0.558   0.191   0.901
   61SOL    HW2  319   0.508   0.065   0.833
   62SOL     OW  320   1.013   1.451   0.476
   62SOL    HW1  321   0.994   1.465   0.569
   62SOL    HW2  322   0.976   1.528   0.433
   63SOL     OW  323   0.404   1.818   0.903
   63SOL    HW1  324   0.310   1.829   0.889
   63SOL    HW2  325   0.419   1.724   0.894
   64SOL     OW  326   1.778   1.047   0.861
   64SOL    HW1  327   1.837   1.112   0.822
   64SOL    HW2  328   1.821   0.963   0.844
   65SOL     OW  329   1.275   1.554   1.505
   65SOL    HW1  330   1.244   1.636   1.544
   65SOL    HW2  331   1.238   1.485   1.561
   66SOL     OW  332   0.309   0.977   0.259
   66SOL    HW1  333   0.401   0.960   0.239
   66SOL    HW2  334   0.264   0.969   0.175
   67SOL     OW  335   1.462   0.732   0.717
   67SOL    HW1  336   1.516   0.739   0.796
   67SOL    HW2  337   1.425   0.644   0.721
   68SOL     OW  338   0.475   1.312   1.765
   68SOL    HW1  339   0.389   1.295   1.802
   68SOL    HW2  340   0.461   1.317   1.671
   69SOL     OW  341   1.114   1.777   0.267
   69SOL    HW1  342   1.032   1.737   0.297
   69SOL    HW2  343   1.138   1.726   0.189
   70SOL     OW  344   0.200   0.277   1.487
   70SOL    HW1  345   0.279   0.326   1.511
   70SOL    HW2  346   0.212   0.191   1.527
   71SOL     OW  347   1.588   1.434   0.045
   71SOL    HW1  348   1.654   1.426   0.114
   71SOL    HW2  349   1.530   1.358   0.060
   72SOL     OW  350   0.516   1.746   0.302
   72SOL    HW1  351   0.533   1.783   0.389
   72SOL    HW2  352   0.446   1.800   0.266
   73SOL     OW  353   1.406   0.128   0.425
   73SOL    HW1  354   1.497   0.141   0.451
   73SOL    HW2  355   1.410   0.110   0.331
   74SOL     OW  356   0.237   1.862   1.211
   74SOL    HW1  357   0.169   1.817   1.261
   74SOL    HW2  358   0.236   1.820   1.125
   75SOL     OW  359   0.878   1.651   0.922
   75SOL    HW1  360   0.806   1.708   0.950
   75SOL    HW2  361   0.866   1.644   0.827
   76SOL     OW  362   0.406   0.716   0.461
   76SOL    HW1  363   0.324   0.749   0.426
   76SOL    HW2  364   0.388   0.625   0.485
   77SOL     OW  365   1.530   0.268   1.729
   77SOL    HW1  366   1.626   0.261   1.735
   77SOL    HW2  367   1.499   0.236   1.813
   78SOL     OW  368   0.534   0.164   0.104
   78SOL    HW1  369   0.604   0.102   0.124
   78SOL    HW2  370   0.579   0.240   0.066
   79SOL     OW  371   0.820   0.180   1.770
   79SOL    HW1  372   0.829   0.265   1.813
   79SOL    HW2  373   0.774   0.199   1.688
   80SOL     OW  374   0.813   1.457   1.218
   80SOL    HW1  375   0.759   1.535   1.228
   80SOL    HW2  376   0.900   1.490   1.197
   81SOL     OW  377   1.349   0.593   1.426
   81SOL    HW1  378   1.263   0.627   1.452
   81SOL    HW2  379   1.329   0.519   1.368
   82SOL     OW  380   0.816   1.369   0.904
   82SOL    HW1  381   0.841   1.459   0.925
   82SOL    HW2  382   0.744   1.378   0.842
   83SOL     OW  383   0.958   0.477   0.888
   83SOL    HW1  384   1.027   0.540   0.867
   83SOL    HW2  385   0.894   0.527   0.938
   84SOL     OW  386   0.601   0.086   0.560
   84SOL    HW1  387   0.582   0.115   0.649
   84SOL    HW2  388   0.575   0.159   0.505
   85SOL     OW  389   1.428   1.215   0.082
   85SOL    HW1  390   1.448   1.159   0.157
   85SOL    HW2  391   1.414   1.154   0.010
   86SOL     OW  392   0.274   0.041   0.160
   86SOL    HW1  393   0.246   0.087   0.239
   86SOL    HW2  394   0.366   0.066   0.148
   87SOL     OW  395   0.944   0.226   0.536
   87SOL    HW1  396   0.894   0.303   0.565
   87SOL    HW2  397   1.028   0.262   0.506
   88SOL     OW  398   1.099   0.674   1.476
   88SOL    HW1  399   1.055   0.757   1.494
   88SOL    HW2  400   1.050   0.635   1.404
   89SOL     OW  401   1.196   1.545   0.834
   89SOL    HW1  402   1.262   1.561   0.901
   89SOL    HW2  403   1.122   1.602   0.857
   90SOL     OW  404   0.456   1.112   0.780
   90SOL    HW1  405   0.522   1.155   0.834
   90SOL    HW2  406   0.427   1.179   0.719
   91SOL     OW  407   1.228   1.828   0.559
   91SOL    HW1  408   1.311   1.875   0.554
   91SOL    HW2  409   1.207   1.806   0.468
   92SOL     OW  410   1.042   0.547   0.084
   92SOL    HW1  411   0.971   0.547   0.148
   92SOL    HW2  412   1.029   0.628   0.034
   93SOL     OW  413   0.085   0.498   1.359
   93SOL    HW1  414   0.015   0.541   1.408
   93SOL    HW2  415   0.106   0.420   1.410
   94SOL     OW  416   0.562   0.207   1.085
   94SOL    HW1  417   0.604   0.279   1.132
   94SOL    HW2  418   0.498   0.172   1.148
   95SOL     OW  419   0.819   0.443   0.653
   95SOL    HW1  420   0.888   0.454   0.719
   95SOL    HW2  421   0.738   0.462   0.699
   96SOL     OW  422   1.018   0.053   0.739
   96SOL    HW1  423   1.022   0.102   0.821
   96SOL    HW2  424   1.008   0.120   0.672
   97SOL     OW  425   1.480   1.188   0.842
   97SOL    HW1  426   1.511   1.135   0.915
   97SOL    HW2  427   1.419   1.131   0.795
   98SOL     OW  428   1.451   0.599   1.011
   98SOL    HW1  429   1.361   0.567   1.008
   98SOL    HW2  430   1.442   0.695   1.010
   99SOL     OW  431   1.917   0.773   0.422
   99SOL    HW1  432   1.868   0.837   0.473
   99SOL    HW2  433   1.854   0.738   0.359
  100SOL     OW  434   0.474   1.382   0.154
  100SOL    HW1  435   0.409   1.439   0.112
  100SOL    HW2  436   0.506   1.326   0.084
  101SOL     OW  437   1.659   1.291   0.655
  101SOL    HW1  438   1.749   1.273   0.680
  101SOL    HW2  439   1.606   1.247   0.721
  102SOL     OW  440   1.467   0.548   0.115
  102SOL    HW1  441   1.511   0.583   0.193
  102SOL    HW2  442   1.410   0.619   0.086
  103SOL     OW  443   0.560   0.274   0.366
  103SOL    HW1  444   0.648   0.304   0.340
  103SOL    HW2  445   0.516   0.256   0.283
  104SOL     OW  446   1.711   1.206   1.567
  104SOL    HW1  447   1.624   1.206   1.608
  104SOL    HW2  448   1.710   1.281   1.508
  105SOL     OW  449   1.063   1.287   1.394
  105SOL    HW1  450   0.969   1.288   1.414
  105SOL    HW2  451   1.068   1.263   1.301
  106SOL     OW  452   1.594   1.652   1.672
  106SOL    HW1  453   1.577   1.705   1.594
  106SOL    HW2  454   1.670   1.599   1.649
  107SOL     OW  455   1.061   1.202   1.131
  107SOL    HW1  456   1.133   1.139   1.127
  107SOL    HW2  457   1.103   1.286   1.110
  108SOL     OW  458   1.616   1.091   1.075
  108SOL    HW1  459   1.644   1.029   1.142
  108SOL    HW2  460   1.684   1.087   1.008
  109SOL     OW  461   0.911   0.076   1.424
  109SOL    HW1  462   0.987   0.120   1.461
  109SOL    HW2  463   0.936   0.058   1.333
  110SOL     OW  464   0.953   1.140   1.694
  110SOL    HW1  465   0.901   1.145   1.774
  110SOL    HW2  466   0.909   1.199   1.633
  111SOL     OW  467   0.688   1.099   0.386
  111SOL    HW1  468   0.600   1.113   0.422
  111SOL    HW2  469   0.675   1.039   0.313
  112SOL     OW  470   0.444   0.824   1.245
  112SOL    HW1  471   0.365   0.872   1.217
  112SOL    HW2  472   0.417   0.732   1.243
  113SOL     OW  473   1.242   0.371   1.297
  113SOL    HW1  474   1.306   0.328   1.240
  113SOL    HW2  475   1.221   0.305   1.363
  114SOL     OW  476   0.072   1.593   1.341
  114SOL    HW1  477   0.164   1.566   1.331
  114SOL    HW2  478   0.044   1.616   1.252
  115SOL     OW  479   0.436   1.089   0.484
  115SOL    HW1  480   0.398   1.045   0.560
  115SOL    HW2  481   0.377   1.067   0.411
  116SOL     OW  482   0.606   0.510   0.846
  116SOL    HW1  483   0.526   0.500   0.898
  116SOL    HW2  484   0.590   0.589   0.793
  117SOL     OW  485   1.181   1.249   0.403
  117SOL    HW1  486   1.141   1.332   0.427
  117SOL    HW2  487   1.138   1.184   0.458
  118SOL     OW  488   1.198   1.437   1.123
  118SOL    HW1  489   1.210   1.517   1.174
  118SOL    HW2  490   1.283   1.421   1.083
  119SOL     OW  491   1.573   0.639   0.478
  119SOL    HW1  492   1.605   0.571   0.538
  119SOL    HW2  493   1.528   0.701   0.535
  120SOL     OW  494   0.351   1.527   1.347
  120SOL    HW1  495   0.372   1.446   1.393
  120SOL    HW2  496   0.424   1.540   1.287
  121SOL     OW  497   0.357   0.739   1.578
  121SOL    HW1  498   0.423   0.781   1.633
  121SOL    HW2  499   0.401   0.722   1.495
  122SOL     OW  500   1.560   0.792   1.669
  122SOL    HW1  501   1.619   0.801   1.743
  122SOL    HW2  502   1.611   0.822   1.594
  123SOL     OW  503   1.079   0.071   1.824
  123SOL    HW1  504   1.005   0.130   1.810
  123SOL    HW2  505   1.048  -0.014   1.794
  124SOL     OW  506   0.487   0.106   1.702
  124SOL    HW1  507   0.560   0.139   1.650
  124SOL    HW2  508   0.431   0.061   1.639
  125SOL     OW  509   0.647   0.866   1.052
  125SOL    HW1  510   0.686   0.954   1.056
  125SOL    HW2  511   0.580   0.867   1.120
  126SOL     OW  512   1.435   0.869   1.012
  126SOL    HW1  513   1.508   0.923   1.044
  126SOL    HW2  514   1.356   0.913   1.044
  127SOL     OW  515   1.215   0.505   0.301
  127SOL    HW1  516   1.298   0.553   0.301
  127SOL    HW2  517   1.183   0.514   0.211
  128SOL     OW  518   0.321   0.165   1.252
  128SOL    HW1  519   0.302   0.240   1.308
  128SOL    HW2  520   0.285   0.189   1.167
  129SOL     OW  521   0.020   1.247   1.254
  129SOL    HW1  522  -0.045   1.310   1.288
  129SOL    HW2  523   0.037   1.276   1.165
  130SOL     OW  524   0.771   0.627   1.028
  130SOL    HW1  525   0.728   0.712   1.041
  130SOL    HW2  526   0.710   0.577   0.974
  131SOL     OW  527   1.736   0.839   1.872
  131SOL    HW1  528   1.810   0.890   1.839
  131SOL    HW2  529   1.699   0.892   1.942
  132SOL     OW  530   0.258   0.094   0.649
  132SOL    HW1  531   0.327   0.035   0.677
  132SOL    HW2  532   0.260   0.090   0.554
  133SOL     OW  533   1.721   0.395   0.333
  133SOL    HW1  534   1.759   0.390   0.421
  133SOL    HW2  535   1.651   0.329   0.333
  134SOL     OW  536   1.011   0.747   1.008
  134SOL    HW1  537   0.924   0.708   1.019
  134SOL    HW2  538   0.999   0.815   0.942
  135SOL     OW  539   0.966   1.598   1.769
  135SOL    HW1  540   0.882   1.635   1.742
  135SOL    HW2  541   1.008   1.571   1.687
  136SOL     OW  542   1.820   1.523   1.600
  136SOL    HW1  543   1.869   1.600   1.571
  136SOL    HW2  544   1.883   1.451   1.595
  137SOL     OW  545   0.341   0.923   1.871
  137SOL    HW1  546   0.434   0.899   1.872
  137SOL    HW2  547   0.317   0.929   1.964
  138SOL     OW  548   1.516   0.262   0.155
  138SOL    HW1  549   1.598   0.280   0.108
  138SOL    HW2  550   1.459   0.335   0.132
  139SOL     OW  551   1.323   0.768   0.041
  139SOL    HW1  552   1.343   0.861   0.047
  139SOL    HW2  553   1.309   0.753  -0.052
  140SOL     OW  554   1.069   1.302   0.789
  140SOL    HW1  555   0.993   1.311   0.847
  140SOL    HW2  556   1.122   1.379   0.809
  141SOL     OW  557   0.276   0.763   0.970
  141SOL    HW1  558   0.184   0.775   0.996
  141SOL    HW2  559   0.280   0.797   0.881
  142SOL     OW  560   0.362   0.507   0.993
  142SOL    HW1  561   0.331   0.598   0.990
  142SOL    HW2  562   0.318   0.465   0.919
  143SOL     OW  563   1.103   0.407   1.677
  143SOL    HW1  564   1.191   0.443   1.674
  143SOL    HW2  565   1.056   0.463   1.739
  144SOL     OW  566   1.156   0.196   1.513
  144SOL    HW1  567   1.210   0.151   1.579
  144SOL    HW2  568   1.123   0.273   1.559
  145SOL     OW  569  -0.006   1.274   0.234
  145SOL    HW1  570   0.086   1.294   0.253
  145SOL    HW2  571  -0.010   1.272   0.138
  146SOL     OW  572   0.127   1.847   0.902
  146SOL    HW1  573   0.067   1.803   0.961
  146SOL    HW2  574   0.073   1.868   0.825
  147SOL     OW  575   0.493   1.561   0.923
  147SOL    HW1  576   0.545   1.554   1.003
  147SOL    HW2  577   0.535   1.500   0.862
  148SOL     OW  578   1.055   0.878   1.239
  148SOL    HW1  579   0.971   0.919   1.260
  148SOL    HW2  580   1.037   0.828   1.160
  149SOL     OW  581   0.041   0.581   1.101
  149SOL    HW1  582   0.055   0.550   1.191
  149SOL    HW2  583  -0.045   0.546   1.077
  150SOL     OW  584   0.184   0.551   1.756
  150SOL    HW1  585   0.266   0.547   1.708
  150SOL    HW2  586   0.134   0.620   1.713
  151SOL     OW  587   1.341   0.946   1.663
  151SOL    HW1  588   1.374   1.035   1.655
  151SOL    HW2  589   1.419   0.891   1.661
  152SOL     OW  590   0.853   0.550   0.291
  152SOL    HW1  591   0.894   0.579   0.372
  152SOL    HW2  592   0.771   0.599   0.287
  153SOL     OW  593   1.654   0.596   1.197
  153SOL    HW1  594   1.657   0.690   1.215
  153SOL    HW2  595   1.584   0.586   1.132
  154SOL     OW  596   0.168   1.547   1.714
  154SOL    HW1  597   0.232   1.600   1.668
  154SOL    HW2  598   0.218   1.473   1.749
  155SOL     OW  599   0.662   0.400   1.253
  155SOL    HW1  600   0.756   0.419   1.252
  155SOL    HW2  601   0.621   0.484   1.272
  156SOL     OW  602   0.916   1.694   1.445
  156SOL    HW1  603   1.004   1.672   1.475
  156SOL    HW2  604   0.917   1.790   1.435
  157SOL     OW  605   0.453   0.500   0.182
  157SOL    HW1  606   0.515   0.560   0.224
  157SOL    HW2  607   0.498   0.470   0.103
  158SOL     OW  608   0.147   1.166   1.479
  158SOL    HW1  609   0.075   1.154   1.542
  158SOL    HW2  610   0.104   1.200   1.401
  159SOL     OW  611   1.277   1.016   1.202
  159SOL    HW1  612   1.193   0.972   1.215
  159SOL    HW2  613   1.338   0.969   1.258
  160SOL     OW  614   1.256   0.826   0.307
  160SOL    HW1  615   1.326   0.890   0.314
  160SOL    HW2  616   1.261   0.794   0.217
  161SOL     OW  617   1.766   1.735   1.120
  161SOL    HW1  618   1.823   1.682   1.175
  161SOL    HW2  619   1.778   1.824   1.152
  162SOL     OW  620   1.286   1.723   1.148
  162SOL    HW1  621   1.343   1.685   1.214
  162SOL    HW2  622   1.343   1.737   1.072
  163SOL     OW  623   0.058   1.292   0.986
  163SOL    HW1  624   0.129   1.356   0.999
  163SOL    HW2  625   0.103   1.213   0.957
  164SOL     OW  626   0.703   1.673   1.728
  164SOL    HW1  627   0.679   1.679   1.821
  164SOL    HW2  628   0.636   1.724   1.683
  165SOL     OW  629   0.928   0.083   0.145
  165SOL    HW1  630   0.867   0.051   0.212
  165SOL    HW2  631   0.929   0.014   0.079
  166SOL     OW  632   1.668   0.143   0.488
  166SOL    HW1  633   1.742   0.188   0.527
  166SOL    HW2  634   1.699   0.053   0.475
  167SOL     OW  635   1.393   1.576   0.482
  167SOL    HW1  636   1.435   1.569   0.568
  167SOL    HW2  637   1.300   1.582   0.500
  168SOL     OW  638   0.056   1.857   1.867
  168SOL    HW1  639   0.147   1.845   1.896
  168SOL    HW2  640   0.061   1.851   1.771
  169SOL     OW  641   1.259   0.911   0.681
  169SOL    HW1  642   1.332   0.851   0.698
  169SOL    HW2  643   1.298   0.983   0.631
  170SOL     OW  644   0.787   1.267   1.407
  170SOL    HW1  645   0.764   1.314   1.487
  170SOL    HW2  646   0.791   1.335   1.340
  171SOL     OW  647   0.675   1.584   0.149
  171SOL    HW1  648   0.620   1.648   0.194
  171SOL    HW2  649   0.624   1.503   0.150
  172SOL     OW  650   1.618   1.771   1.413
  172SOL    HW1  651   1.709   1.757   1.387
  172SOL    HW2  652   1.569   1.702   1.368
  173SOL     OW  653   1.822   0.177   0.959
  173SOL    HW1  654   1.900   0.231   0.948
  173SOL    HW2  655   1.802   0.183   1.052
  174SOL     OW  656   0.280   0.356   0.756
  174SOL    HW1  657   0.287   0.264   0.732
  174SOL    HW2  658   0.330   0.402   0.688
  175SOL     OW  659   1.172   1.617   0.055
  175SOL    HW1  660   1.263   1.629   0.027
  175SOL    HW2  661   1.164   1.523   0.069
  176SOL     OW  662   0.826   1.008   1.318
  176SOL    HW1  663   0.834   0.959   1.400
  176SOL    HW2  664   0.812   1.099   1.346
  177SOL     OW  665   0.928   0.928   0.294
  177SOL    HW1  666   0.913   0.978   0.375
  177SOL    HW2  667   0.955   0.841   0.324
  178SOL     OW  668   1.429   1.653   4.984
  178SOL    HW1  669   1.455   1.682   4.897
  178SOL    HW2  670   1.494   1.587   5.008
  179SOL     OW  671   0.394   1.289   1.499
  179SOL    HW1  672   0.450   1.221   1.460
  179SOL    HW2  673   0.306   1.252   1.496
  180SOL     OW  674   1.618   1.339   1.289
  180SOL    HW1  675   1.714   1.333   1.289
  180SOL    HW2  676   1.589   1.260   1.244
  181SOL     OW  677   1.061   1.104   0.600
  181SOL    HW1  678   1.059   1.172   0.667
  181SOL    HW2  679   1.097   1.027   0.645
  182SOL     OW  680   1.019   0.210   0.973
  182SOL    HW1  681   0.957   0.281   0.954
  182SOL    HW2  682   1.105   0.251   0.962
  183SOL     OW  683   0.625   1.478   0.486
  183SOL    HW1  684   0.530   1.479   0.480
  183SOL    HW2  685   0.654   1.448   0.399
  184SOL     OW  686   1.687   0.395   1.386
  184SOL    HW1  687   1.652   0.465   1.331
  184SOL    HW2  688   1.724   0.332   1.325
  185SOL     OW  689   0.246   1.330   0.303
  185SOL    HW1  690   0.330   1.334   0.257
  185SOL    HW2  691   0.265   1.368   0.389
  186SOL     OW  692   0.150   1.027   1.720
  186SOL    HW1  693   0.215   0.985   1.777
  186SOL    HW2  694   0.198   1.048   1.640
  187SOL     OW  695   0.683   0.185   1.525
  187SOL    HW1  696   0.761   0.142   1.489
  187SOL    HW2  697   0.646   0.234   1.451
  188SOL     OW  698   0.077   0.314   0.040
  188SOL    HW1  699   0.024   0.353   0.109
  188SOL    HW2  700   0.071   0.376  -0.033
  189SOL     OW  701   1.405   0.858   1.383
  189SOL    HW1  702   1.362   0.894   1.461
  189SOL    HW2  703   1.397   0.763   1.392
  190SOL     OW  704   0.108   0.206   0.356
  190SOL    HW1  705   0.088   0.289   0.313
  190SOL    HW2  706   0.043   0.145   0.321
  191SOL     OW  707   1.174   1.347   0.112
  191SOL    HW1  708   1.257   1.302   0.127
  191SOL    HW2  709   1.128   1.341   0.196
  192SOL     OW  710   0.607   0.839   1.471
  192SOL    HW1  711   0.671   0.768   1.459
  192SOL    HW2  712   0.568   0.850   1.384
  193SOL     OW  713   1.471   1.722   0.938
  193SOL    HW1  714   1.548   1.774   0.961
  193SOL    HW2  715   1.491   1.685   0.853
  194SOL     OW  716   0.671   0.572   1.708
  194SOL    HW1  717   0.616   0.564   1.786
  194SOL    HW2  718   0.727   0.647   1.726
  195SOL     OW  719   1.439   1.224   1.644
  195SOL    HW1  720   1.401   1.309   1.669
  195SOL    HW2  721   1.412   1.212   1.554
  196SOL     OW  722   0.329   1.710   1.552
  196SOL    HW1  723   0.408   1.763   1.564
  196SOL    HW2  724   0.347   1.659   1.473
  197SOL     OW  725   1.642   0.880   1.253
  197SOL    HW1  726   1.697   0.900   1.328
  197SOL    HW2  727   1.554   0.874   1.288
  198SOL     OW  728   1.216   0.313   0.495
  198SOL    HW1  729   1.277   0.243   0.473
  198SOL    HW2  730   1.215   0.369   0.417
  199SOL     OW  731   0.584   0.715   0.674
  199SOL    HW1  732   0.638   0.794   0.678
  199SOL    HW2  733   0.526   0.729   0.599
  200SOL     OW  734   1.804   0.370   1.633
  200SOL    HW1  735   1.778   0.436   1.697
  200SOL    HW2  736   1.750   0.389   1.556
  201SOL     OW  737   1.737   0.927   1.501
  201SOL    HW1  738   1.749   1.015   1.537
  201SOL    HW2  739   1.815   0.880   1.529
  202SOL     OW  740   0.806   1.363   4.977
  202SOL    HW1  741   0.811   1.439   5.035
  202SOL    HW2  742   0.897   1.343   4.956
  203SOL     OW  743   0.658   1.809   1.018
  203SOL    HW1  744   0.660   1.896   1.059
  203SOL    HW2  745   0.577   1.808   0.968
  204SOL     OW  746   0.906   0.941   0.847
  204SOL    HW1  747   0.871   1.005   0.910
  204SOL    HW2  748   0.843   0.942   0.775
  205SOL     OW  749   1.128   1.012   0.074
  205SOL    HW1  750   1.121   1.011   0.169
  205SOL    HW2  751   1.080   0.934   0.045
  206SOL     OW  752   1.862   1.561   0.805
  206SOL    HW1  753   1.800   1.525   0.869
  206SOL    HW2  754   1.807   1.609   0.744
  207SOL     OW  755   0.215   1.274   1.828
  207SOL    HW1  756   0.149   1.301   1.892
  207SOL    HW2  757   0.185   1.189   1.796
  208SOL     OW  758   0.137   1.262   0.638
  208SOL    HW1  759   0.071   1.306   0.584
  208SOL    HW2  760   0.088   1.193   0.683
  209SOL     OW  761   0.749   1.366   1.658
  209SOL    HW1  762   0.798   1.370   1.741
  209SOL    HW2  763   0.671   1.418   1.673
  210SOL     OW  764   1.843   0.236   1.227
  210SOL    HW1  765   1.882   0.175   1.289
  210SOL    HW2  766   1.915   0.292   1.199
  211SOL     OW  767   0.434   0.449   0.545
  211SOL    HW1  768   0.518   0.464   0.589
  211SOL    HW2  769   0.455   0.392   0.471
  212SOL     OW  770   1.711   1.479   1.023
  212SOL    HW1  771   1.633   1.444   1.066
  212SOL    HW2  772   1.720   1.567   1.059
  213SOL     OW  773   0.355   0.552   1.277
  213SOL    HW1  774   0.262   0.546   1.299
  213SOL    HW2  775   0.361   0.525   1.186
  214SOL     OW  776   0.806   1.606   0.654
  214SOL    HW1  777   0.817   1.693   0.616
  214SOL    HW2  778   0.744   1.562   0.596
  215SOL     OW  779   1.412   0.217   1.134
  215SOL    HW1  780   1.475   0.156   1.172
  215SOL    HW2  781   1.343   0.161   1.098
  216SOL     OW  782   1.005   0.019   1.176
  216SOL    HW1  783   1.088  -0.028   1.165
  216SOL    HW2  784   1.004   0.083   1.105
  217SOL     OW  785   0.809   1.336   0.307
  217SOL    HW1  786   0.879   1.356   0.369
  217SOL    HW2  787   0.772   1.253   0.339
  218SOL     OW  788   0.595   1.632   1.220
  218SOL    HW1  789   0.598   1.677   1.304
  218SOL    HW2  790   0.616   1.699   1.155
  219SOL     OW  791   1.352   0.011   0.164
  219SOL    HW1  792   1.295   0.088   0.173
  219SOL    HW2  793   1.338  -0.019   0.074
  220SOL     OW  794   1.323   0.475   0.692
  220SOL    HW1  795   1.251   0.538   0.701
  220SOL    HW2  796   1.292   0.413   0.626
  221SOL     OW  797   1.567   0.263   0.902
  221SOL    HW1  798   1.651   0.219   0.905
  221SOL    HW2  799   1.530   0.249   0.990
  222SOL     OW  800   0.022   1.002   0.309
  222SOL    HW1  801   0.117   0.994   0.314
  222SOL    HW2  802   0.006   1.097   0.304
  223SOL     OW  803   0.881   1.648   0.336
  223SOL    HW1  804   0.828   1.721   0.369
  223SOL    HW2  805   0.828   1.609   0.267
  224SOL     OW  806   0.215   0.630   2.020
  224SOL    HW1  807   0.128   0.620   2.060
  224SOL    HW2  808   0.199   0.617   1.927
  225SOL     OW  809   0.214   0.245   2.825
  225SOL    HW1  810   0.203   0.254   2.919
  225SOL    HW2  811   0.301   0.208   2.814
  226SOL     OW  812   4.934   0.390   2.421
  226SOL    HW1  813   4.997   0.460   2.439
  226SOL    HW2  814   4.984   0.326   2.370
  227SOL     OW  815   0.608   1.295   3.092
  227SOL    HW1  816   0.659   1.288   3.172
  227SOL    HW2  817   0.517   1.286   3.120
  228SOL     OW  818   1.540   1.506   2.549
  228SOL    HW1  819   1.527   1.500   2.643
  228SOL    HW2  820   1.595   1.583   2.536
  229SOL     OW  821   1.158   0.687   2.565
  229SOL    HW1  822   1.217   0.613   2.580
  229SOL    HW2  823   1.107   0.660   2.488
  230SOL     OW  824   1.750   0.592   2.151
  230SOL    HW1  825   1.766   0.661   2.215
  230SOL    HW2  826   1.804   0.615   2.076
  231SOL     OW  827   0.786   1.156   2.947
  231SOL    HW1  828   0.716   1.209   2.986
  231SOL    HW2  829   0.740   1.086   2.901
  232SOL     OW  830   0.881   0.757   3.727
  232SOL    HW1  831   0.895   0.819   3.656
  232SOL    HW2  832   0.854   0.676   3.684
  233SOL     OW  833   0.697   0.972   2.502
  233SOL    HW1  834   0.661   0.883   2.499
  233SOL    HW2  835   0.628   1.023   2.545
  234SOL     OW  836   0.723   1.178   3.703
  234SOL    HW1  837   0.783   1.239   3.745
  234SOL    HW2  838   0.686   1.228   3.630
  235SOL     OW  839   0.329   1.388   2.958
  235SOL    HW1  840   0.384   1.437   2.897
  235SOL    HW2  841   0.270   1.338   2.901
  236SOL     OW  842   1.432   1.552   3.171
  236SOL    HW1  843   1.374   1.567   3.246
  236SOL    HW2  844   1.512   1.599   3.193
  237SOL     OW  845   0.447   0.403   3.337
  237SOL    HW1  846   0.361   0.363   3.348
  237SOL    HW2  847   0.509   0.331   3.351
  238SOL     OW  848   1.570   0.426   2.522
  238SOL    HW1  849   1.648   0.481   2.512
  238SOL    HW2  850   1.591   0.346   2.474
  239SOL     OW  851   0.200   1.698   2.351
  239SOL    HW1  852   0.217   1.611   2.387
  239SOL    HW2  853   0.115   1.723   2.387
  240SOL     OW  854   1.183   1.384   3.535
  240SOL    HW1  855   1.121   1.330   3.584
  240SOL    HW2  856   1.207   1.329   3.460
  241SOL     OW  857   0.276   1.449   2.431
  241SOL    HW1  858   0.355   1.430   2.481
  241SOL    HW2  859   0.288   1.404   2.347
  242SOL     OW  860   0.254   1.088   2.787
  242SOL    HW1  861   0.232   1.105   2.879
  242SOL    HW2  862   0.173   1.109   2.740
  243SOL     OW  863   0.654   1.752   3.308
  243SOL    HW1  864   0.631   1.719   3.395
  243SOL    HW2  865   0.631   1.681   3.249
  244SOL     OW  866   0.608   0.872   1.910
  244SOL    HW1  867   0.641   0.961   1.902
  244SOL    HW2  868   0.619   0.851   2.003
  245SOL     OW  869   1.602   0.083   3.341
  245SOL    HW1  870   1.682   0.050   3.380
  245SOL    HW2  871   1.564   0.140   3.408
  246SOL     OW  872   0.129   0.583   2.432
  246SOL    HW1  873   0.224   0.597   2.428
  246SOL    HW2  874   0.093   0.644   2.368
  247SOL     OW  875   1.845   1.720   2.239
  247SOL    HW1  876   1.932   1.731   2.277
  247SOL    HW2  877   1.860   1.676   2.156
  248SOL     OW  878   0.008   1.584   2.004
  248SOL    HW1  879  -0.040   1.651   2.052
  248SOL    HW2  880   0.042   1.629   1.927
  249SOL     OW  881   1.715   0.943   2.508
  249SOL    HW1  882   1.658   1.005   2.463
  249SOL    HW2  883   1.734   0.875   2.443
  250SOL     OW  884   1.586   1.083   2.303
  250SOL    HW1  885   1.663   1.138   2.287
  250SOL    HW2  886   1.573   1.036   2.221
  251SOL     OW  887   0.090   0.750   3.494
  251SOL    HW1  888   0.089   0.824   3.554
  251SOL    HW2  889  -0.000   0.744   3.462
  252SOL     OW  890   0.622   1.410   2.549
  252SOL    HW1  891   0.642   1.347   2.618
  252SOL    HW2  892   0.702   1.463   2.542
  253SOL     OW  893   1.260   1.243   3.303
  253SOL    HW1  894   1.338   1.241   3.359
  253SOL    HW2  895   1.282   1.184   3.231
  254SOL     OW  896   0.856   0.003   2.425
  254SOL    HW1  897   0.761   0.003   2.436
  254SOL    HW2  898   0.869   0.012   2.330
  255SOL     OW  899   0.196   1.031   3.092
  255SOL    HW1  900   0.164   1.042   3.181
  255SOL    HW2  901   0.157   0.949   3.062
  256SOL     OW  902   1.530   0.954   2.065
  256SOL    HW1  903   1.502   1.034   2.020
  256SOL    HW2  904   1.482   0.884   2.021
  257SOL     OW  905   1.184   1.805   3.525
  257SOL    HW1  906   1.242   1.793   3.600
  257SOL    HW2  907   1.119   1.869   3.555
  258SOL     OW  908   0.329   0.278   3.644
  258SOL    HW1  909   0.406   0.254   3.592
  258SOL    HW2  910   0.294   0.356   3.600
  259SOL     OW  911   1.456   1.436   2.824
  259SOL    HW1  912   1.537   1.437   2.876
  259SOL    HW2  913   1.459   1.353   2.777
  260SOL     OW  914   1.687   1.719   2.464
  260SOL    HW1  915   1.621   1.786   2.446
  260SOL    HW2  916   1.746   1.723   2.390
  261SOL     OW  917   0.596   0.702   2.131
  261SOL    HW1  918   0.523   0.721   2.191
  261SOL    HW2  919   0.557   0.646   2.064
  262SOL     OW  920   1.274   0.396   2.844
  262SOL    HW1  921   1.288   0.412   2.751
  262SOL    HW2  922   1.196   0.341   2.847
  263SOL     OW  923   1.579   1.652   2.130
  263SOL    HW1  924   1.656   1.686   2.176
  263SOL    HW2  925   1.514   1.640   2.199
  264SOL     OW  926   0.788   0.609   3.350
  264SOL    HW1  927   0.883   0.615   3.336
  264SOL    HW2  928   0.752   0.682   3.300
  265SOL     OW  929   1.437   0.476   3.514
  265SOL    HW1  930   1.526   0.488   3.547
  265SOL    HW2  931   1.422   0.382   3.520
  266SOL     OW  932   0.919   0.898   3.490
  266SOL    HW1  933   0.884   0.917   3.403
  266SOL    HW2  934   0.992   0.959   3.500
  267SOL     OW  935   0.981   0.409   3.098
  267SOL    HW1  936   0.887   0.410   3.116
  267SOL    HW2  937   0.991   0.350   3.024
  268SOL     OW  938   1.012   0.650   2.319
  268SOL    HW1  939   0.995   0.736   2.281
  268SOL    HW2  940   1.078   0.611   2.263
  269SOL     OW  941   0.053   0.872   2.659
  269SOL    HW1  942   0.142   0.838   2.666
  269SOL    HW2  943   0.005   0.805   2.609
  270SOL     OW  944   0.116   1.830   3.466
  270SOL    HW1  945   0.199   1.786   3.451
  270SOL    HW2  946   0.123   1.912   3.418
  271SOL     OW  947   0.912   0.308   2.018
  271SOL    HW1  948   0.890   0.354   2.098
  271SOL    HW2  949   0.907   0.215   2.041
  272SOL     OW  950   1.685   0.528   3.653
  272SOL    HW1  951   1.619   0.539   3.722
  272SOL    HW2  952   1.702   0.617   3.622
  273SOL     OW  953   1.350   1.168   2.413
  273SOL    HW1  954   1.310   1.088   2.447
  273SOL    HW2  955   1.431   1.140   2.372
  274SOL     OW  956   0.529   0.229   2.747
  274SOL    HW1  957   0.541   0.321   2.723
  274SOL    HW2  958   0.577   0.181   2.679
  275SOL     OW  959   1.023   1.431   2.383
  275SOL    HW1  960   1.050   1.381   2.460
  275SOL    HW2  961   0.950   1.484   2.414
  276SOL     OW  962   0.389   1.807   2.730
  276SOL    HW1  963   0.481   1.817   2.755
  276SOL    HW2  964   0.378   1.864   2.654
  277SOL     OW  965   1.788   1.058   2.753
  277SOL    HW1  966   1.874   1.017   2.763
  277SOL    HW2  967   1.752   1.019   2.673
  278SOL     OW  968   1.245   1.597   3.359
  278SOL    HW1  969   1.218   1.525   3.417
  278SOL    HW2  970   1.219   1.676   3.404
  279SOL     OW  971   0.280   0.941   2.143
  279SOL    HW1  972   0.192   0.976   2.152
  279SOL    HW2  973   0.273   0.850   2.172
  280SOL     OW  974   1.481   0.715   2.622
  280SOL    HW1  975   1.442   0.803   2.614
  280SOL    HW2  976   1.512   0.694   2.534
  281SOL     OW  977   0.402   1.213   3.528
  281SOL    HW1  978   0.483   1.263   3.541
  281SOL    HW2  979   0.346   1.237   3.601
  282SOL     OW  980   1.080   1.826   2.138
  282SOL    HW1  981   1.125   1.753   2.095
  282SOL    HW2  982   1.059   1.886   2.066
  283SOL     OW  983   0.193   0.279   3.358
  283SOL    HW1  984   0.234   0.193   3.367
  283SOL    HW2  985   0.101   0.259   3.339
  284SOL     OW  986   1.619   1.372   1.975
  284SOL    HW1  987   1.570   1.437   2.026
  284SOL    HW2  988   1.622   1.409   1.886
  285SOL     OW  989   0.427   1.743   2.217
  285SOL    HW1  990   0.343   1.724   2.257
  285SOL    HW2  991   0.482   1.667   2.238
  286SOL     OW  992   1.366   0.108   2.225
  286SOL    HW1  993   1.327   0.183   2.270
  286SOL    HW2  994   1.376   0.041   2.294
  287SOL     OW  995   0.266   1.803   3.149
  287SOL    HW1  996   0.318   1.723   3.138
  287SOL    HW2  997   0.176   1.772   3.160
  288SOL     OW  998   0.908   1.713   2.749
  288SOL    HW1  999   0.975   1.655   2.786
  288SOL    HW2 1000   0.958   1.782   2.706
  289SOL     OW 1001   0.388   0.713   2.320
  289SOL    HW1 1002   0.447   0.742   2.390
  289SOL    HW2 1003   0.391   0.618   2.323
  290SOL     OW 1004   1.558   0.213   3.583
  290SOL    HW1 1005   1.539   0.235   3.675
  290SOL    HW2 1006   1.647   0.245   3.569
  291SOL     OW 1007   0.555   0.094   1.976
  291SOL    HW1 1008   0.526   0.105   1.885
  291SOL    HW2 1009   0.638   0.048   1.969
  292SOL     OW 1010   0.835   0.287   3.570
  292SOL    HW1 1011   0.784   0.358   3.609
  292SOL    HW2 1012   0.781   0.256   3.497
  293SOL     OW 1013   0.906   1.556   3.021
  293SOL    HW1 1014   0.941   1.491   3.081
  293SOL    HW2 1015   0.815   1.568   3.049
  294SOL     OW 1016   1.341   0.615   3.298
  294SOL    HW1 1017   1.373   0.574   3.379
  294SOL    HW2 1018   1.341   0.544   3.234
  295SOL     OW 1019   0.839   1.394   2.796
  295SOL    HW1 1020   0.858   1.454   2.868
  295SOL    HW2 1021   0.832   1.308   2.837
  296SOL     OW 1022   0.949   0.510   2.737
  296SOL    HW1 1023   0.878   0.536   2.796
  296SOL    HW2 1024   1.014   0.581   2.744
  297SOL     OW 1025   0.574   0.031   2.355
  297SOL    HW1 1026   0.503   0.068   2.408
  297SOL    HW2 1027   0.532  -0.039   2.305
  298SOL     OW 1028   1.451   1.162   1.919
  298SOL    HW1 1029   1.504   1.238   1.944
  298SOL    HW2 1030   1.436   1.173   1.825
  299SOL     OW 1031   0.337   4.955   2.072
  299SOL    HW1 1032   0.419   4.988   2.037
  299SOL    HW2 1033   0.291   5.032   2.105
  300SOL     OW 1034   0.969   0.270   2.346
  300SOL    HW1 1035   0.940   0.193   2.395
  300SOL    HW2 1036   0.919   0.342   2.384
  301SOL     OW 1037   1.060   0.609   3.277
  301SOL    HW1 1038   1.153   0.615   3.297
  301SOL    HW2 1039   1.053   0.530   3.222
  302SOL     OW 1040   1.204   1.648   2.727
  302SOL    HW1 1041   1.176   1.559   2.705
  302SOL    HW2 1042   1.219   1.690   2.642
  303SOL     OW 1043   0.471   1.074   2.618
  303SOL    HW1 1044   0.396   1.093   2.675
  303SOL    HW2 1045   0.437   1.088   2.530
  304SOL     OW 1046   1.257   1.784   2.477
  304SOL    HW1 1047   1.292   1.857   2.425
  304SOL    HW2 1048   1.279   1.706   2.425
  305SOL     OW 1049   0.996   0.545   1.908
  305SOL    HW1 1050   1.028   0.583   1.989
  305SOL    HW2 1051   0.962   0.459   1.934
  306SOL     OW 1052   0.122   0.591   3.251
  306SOL    HW1 1053   0.076   0.641   3.318
  306SOL    HW2 1054   0.056   0.573   3.184
  307SOL     OW 1055   0.558   0.197   3.020
  307SOL    HW1 1056   0.609   0.274   3.043
  307SOL    HW2 1057   0.554   0.199   2.925
  308SOL     OW 1058   0.857   0.481   2.480
  308SOL    HW1 1059   0.881   0.485   2.573
  308SOL    HW2 1060   0.907   0.551   2.439
  309SOL     OW 1061   1.012   0.073   2.644
  309SOL    HW1 1062   0.949   0.053   2.576
  309SOL    HW2 1063   1.074  -0.001   2.642
  310SOL     OW 1064   1.466   1.209   2.671
  310SOL    HW1 1065   1.416   1.210   2.590
  310SOL    HW2 1066   1.432   1.134   2.720
  311SOL     OW 1067   1.463   0.613   2.881
  311SOL    HW1 1068   1.481   0.631   2.789
  311SOL    HW2 1069   1.405   0.537   2.880
  312SOL     OW 1070   1.834   0.822   2.284
  312SOL    HW1 1071   1.919   0.783   2.305
  312SOL    HW2 1072   1.856   0.904   2.240
  313SOL     OW 1073   0.503   1.423   2.024
  313SOL    HW1 1074   0.580   1.388   2.070
  313SOL    HW2 1075   0.509   1.386   1.936
  314SOL     OW 1076   1.705   1.287   2.533
  314SOL    HW1 1077   1.654   1.234   2.593
  314SOL    HW2 1078   1.647   1.360   2.511
  315SOL     OW 1079   1.448   0.551   1.924
  315SOL    HW1 1080   1.462   0.465   1.964
  315SOL    HW2 1081   1.418   0.530   1.835
  316SOL     OW 1082   0.534   0.303   2.165
  316SOL    HW1 1083   0.593   0.373   2.138
  316SOL    HW2 1084   0.551   0.232   2.104
  317SOL     OW 1085   1.742   1.227   3.416
  317SOL    HW1 1086   1.780   1.305   3.456
  317SOL    HW2 1087   1.702   1.258   3.335
  318SOL     OW 1088   1.041   1.373   3.187
  318SOL    HW1 1089   1.093   1.323   3.250
  318SOL    HW2 1090   1.104   1.400   3.120
  319SOL     OW 1091   1.616   1.625   3.519
  319SOL    HW1 1092   1.698   1.576   3.528
  319SOL    HW2 1093   1.594   1.618   3.427
  320SOL     OW 1094   1.104   1.198   2.887
  320SOL    HW1 1095   1.029   1.165   2.936
  320SOL    HW2 1096   1.150   1.255   2.949
  321SOL     OW 1097   1.592   1.075   2.953
  321SOL    HW1 1098   1.646   1.026   3.016
  321SOL    HW2 1099   1.647   1.081   2.875
  322SOL     OW 1100   0.873   0.082   3.274
  322SOL    HW1 1101   0.906   0.085   3.185
  322SOL    HW2 1102   0.848  -0.009   3.288
  323SOL     OW 1103   0.998   1.169   3.576
  323SOL    HW1 1104   1.031   1.122   3.653
  323SOL    HW2 1105   0.903   1.167   3.586
  324SOL     OW 1106   0.730   1.049   2.242
  324SOL    HW1 1107   0.732   1.030   2.335
  324SOL    HW2 1108   0.640   1.075   2.224
  325SOL     OW 1109   0.473   0.781   3.010
  325SOL    HW1 1110   0.526   0.805   3.086
  325SOL    HW2 1111   0.424   0.704   3.039
  326SOL     OW 1112   1.293   0.394   3.143
  326SOL    HW1 1113   1.234   0.339   3.195
  326SOL    HW2 1114   1.246   0.408   3.061
  327SOL     OW 1115   0.047   1.625   3.172
  327SOL    HW1 1116  -0.004   1.625   3.252
  327SOL    HW2 1117   0.074   1.534   3.160
  328SOL     OW 1118   0.369   1.104   2.358
  328SOL    HW1 1119   0.354   1.185   2.309
  328SOL    HW2 1120   0.350   1.034   2.297
  329SOL     OW 1121   0.573   0.530   2.721
  329SOL    HW1 1122   0.640   0.556   2.785
  329SOL    HW2 1123   0.492   0.525   2.772
  330SOL     OW 1124   1.248   1.367   2.235
  330SOL    HW1 1125   1.280   1.296   2.291
  330SOL    HW2 1126   1.164   1.391   2.273
  331SOL     OW 1127   1.247   1.425   3.013
  331SOL    HW1 1128   1.312   1.446   3.080
  331SOL    HW2 1129   1.299   1.418   2.932
  332SOL     OW 1130   1.543   0.714   2.351
  332SOL    HW1 1131   1.499   0.646   2.300
  332SOL    HW2 1132   1.595   0.763   2.286
  333SOL     OW 1133   0.376   1.554   3.163
  333SOL    HW1 1134   0.369   1.498   3.240
  333SOL    HW2 1135   0.352   1.498   3.089
  334SOL     OW 1136   0.403   0.752   3.431
  334SOL    HW1 1137   0.308   0.762   3.424
  334SOL    HW2 1138   0.418   0.658   3.423
  335SOL     OW 1139   1.584   0.776   3.539
  335SOL    HW1 1140   1.620   0.835   3.605
  335SOL    HW2 1141   1.507   0.736   3.581
  336SOL     OW 1142   1.020   0.077   3.626
  336SOL    HW1 1143   1.099   0.120   3.660
  336SOL    HW2 1144   0.959   0.149   3.608
  337SOL     OW 1145   0.542   5.007   3.535
  337SOL    HW1 1146   0.537   5.041   3.624
  337SOL    HW2 1147   0.544   4.912   3.546
  338SOL     OW 1148   0.622   0.955   2.846
  338SOL    HW1 1149   0.571   0.894   2.899
  338SOL    HW2 1150   0.560   0.986   2.779
  339SOL     OW 1151   1.299   0.858   2.846
  339SOL    HW1 1152   1.314   0.912   2.923
  339SOL    HW2 1153   1.356   0.783   2.858
  340SOL     OW 1154   1.196   0.540   2.133
  340SOL    HW1 1155   1.241   0.623   2.150
  340SOL    HW2 1156   1.224   0.515   2.045
  341SOL     OW 1157   0.294   0.246   3.080
  341SOL    HW1 1158   0.385   0.217   3.079
  341SOL    HW2 1159   0.265   0.230   3.170
  342SOL     OW 1160   0.078   1.344   3.157
  342SOL    HW1 1161   0.119   1.271   3.203
  342SOL    HW2 1162   0.093   1.326   3.064
  343SOL     OW 1163   0.761   0.591   2.916
  343SOL    HW1 1164   0.807   0.665   2.956
  343SOL    HW2 1165   0.735   0.536   2.991
  344SOL     OW 1166   1.723   0.944   3.695
  344SOL    HW1 1167   1.683   0.990   3.768
  344SOL    HW2 1168   1.810   0.982   3.686
  345SOL     OW 1169   0.335   0.071   2.505
  345SOL    HW1 1170   0.295   0.156   2.525
  345SOL    HW2 1171   0.260   0.013   2.489
  346SOL     OW 1172   1.658   0.346   2.234
  346SOL    HW1 1173   1.695   0.432   2.213
  346SOL    HW2 1174   1.632   0.310   2.149
  347SOL     OW 1175   1.031   0.769   2.866
  347SOL    HW1 1176   1.122   0.793   2.848
  347SOL    HW2 1177   0.980   0.825   2.808
  348SOL     OW 1178   0.955   1.604   3.617
  348SOL    HW1 1179   1.038   1.616   3.665
  348SOL    HW2 1180   0.970   1.646   3.532
  349SOL     OW 1181   1.851   1.477   3.476
  349SOL    HW1 1182   1.927   1.491   3.533
  349SOL    HW2 1183   1.875   1.516   3.393
  350SOL     OW 1184   0.305   0.893   3.722
  350SOL    HW1 1185   0.230   0.942   3.687
  350SOL    HW2 1186   0.369   0.895   3.651
  351SOL     OW 1187   1.536   0.212   2.026
  351SOL    HW1 1188   1.480   0.205   2.104
  351SOL    HW2 1189   1.520   0.131   1.978
  352SOL     OW 1190   1.338   0.815   1.914
  352SOL    HW1 1191   1.321   0.862   1.831
  352SOL    HW2 1192   1.376   0.732   1.887
  353SOL     OW 1193   1.086   1.404   2.673
  353SOL    HW1 1194   1.116   1.314   2.687
  353SOL    HW2 1195   0.995   1.403   2.700
  354SOL     OW 1196   0.306   0.818   2.787
  354SOL    HW1 1197   0.370   0.795   2.855
  354SOL    HW2 1198   0.306   0.914   2.786
  355SOL     OW 1199   0.357   0.489   2.872
  355SOL    HW1 1200   0.356   0.507   2.966
  355SOL    HW2 1201   0.294   0.418   2.860
  356SOL     OW 1202   1.089   0.390   3.554
  356SOL    HW1 1203   0.998   0.360   3.551
  356SOL    HW2 1204   1.129   0.355   3.474
  357SOL     OW 1205   1.144   0.223   3.326
  357SOL    HW1 1206   1.056   0.188   3.317
  357SOL    HW2 1207   1.201   0.147   3.319
  358SOL     OW 1208   5.017   1.320   2.005
  358SOL    HW1 1209   5.014   1.416   2.012
  358SOL    HW2 1210   4.946   1.299   1.944
  359SOL     OW 1211   0.117   1.880   2.766
  359SOL    HW1 1212   0.202   1.838   2.780
  359SOL    HW2 1213   0.060   1.841   2.832
  360SOL     OW 1214   0.477   1.553   2.807
  360SOL    HW1 1215   0.566   1.560   2.772
  360SOL    HW2 1216   0.433   1.631   2.774
  361SOL     OW 1217   0.943   0.797   3.123
  361SOL    HW1 1218   0.992   0.737   3.180
  361SOL    HW2 1219   0.984   0.788   3.037
  362SOL     OW 1220   4.971   0.565   3.020
  362SOL    HW1 1221   4.898   0.563   2.958
  362SOL    HW2 1222   5.019   0.645   2.999
  363SOL     OW 1223   0.203   0.495   3.544
  363SOL    HW1 1224   0.158   0.579   3.536
  363SOL    HW2 1225   0.174   0.445   3.468
  364SOL     OW 1226   1.351   0.980   3.536
  364SOL    HW1 1227   1.367   1.069   3.505
  364SOL    HW2 1228   1.373   0.925   3.461
  365SOL     OW 1229   0.805   0.527   2.168
  365SOL    HW1 1230   0.865   0.563   2.233
  365SOL    HW2 1231   0.738   0.595   2.157
  366SOL     OW 1232   1.676   0.653   3.066
  366SOL    HW1 1233   1.751   0.629   3.012
  366SOL    HW2 1234   1.600   0.639   3.010
  367SOL     OW 1235   0.222   1.588   3.651
  367SOL    HW1 1236   0.315   1.612   3.648
  367SOL    HW2 1237   0.197   1.579   3.559
  368SOL     OW 1238   0.677   0.434   3.130
  368SOL    HW1 1239   0.682   0.386   3.213
  368SOL    HW2 1240   0.612   0.503   3.147
  369SOL     OW 1241   0.918   1.693   3.347
  369SOL    HW1 1242   0.824   1.710   3.335
  369SOL    HW2 1243   0.935   1.614   3.296
  370SOL     OW 1244   0.465   0.526   1.956
  370SOL    HW1 1245   0.385   0.567   1.987
  370SOL    HW2 1246   0.437   0.444   1.916
  371SOL     OW 1247   0.142   1.126   3.356
  371SOL    HW1 1248   0.209   1.171   3.408
  371SOL    HW2 1249   0.086   1.082   3.420
  372SOL     OW 1250   1.365   1.074   3.111
  372SOL    HW1 1251   1.393   1.002   3.169
  372SOL    HW2 1252   1.439   1.088   3.052
  373SOL     OW 1253   1.295   0.784   2.178
  373SOL    HW1 1254   1.342   0.853   2.224
  373SOL    HW2 1255   1.303   0.807   2.085
  374SOL     OW 1256   1.733   1.737   2.960
  374SOL    HW1 1257   1.705   1.742   3.051
  374SOL    HW2 1258   1.656   1.763   2.910
  375SOL     OW 1259   0.055   1.283   2.879
  375SOL    HW1 1260   0.051   1.317   2.789
  375SOL    HW2 1261  -0.035   1.254   2.897
  376SOL     OW 1262   0.686   1.623   3.561
  376SOL    HW1 1263   0.781   1.625   3.575
  376SOL    HW2 1264   0.649   1.644   3.647
  377SOL     OW 1265   1.656   0.166   2.443
  377SOL    HW1 1266   1.734   0.112   2.457
  377SOL    HW2 1267   1.674   0.214   2.362
  378SOL     OW 1268   1.394   1.584   2.329
  378SOL    HW1 1269   1.437   1.541   2.403
  378SOL    HW2 1270   1.344   1.514   2.287
  379SOL     OW 1271   0.007   1.867   3.706
  379SOL    HW1 1272   0.011   1.783   3.753
  379SOL    HW2 1273   0.045   1.848   3.620
  380SOL     OW 1274   1.256   0.942   2.562
  380SOL    HW1 1275   1.263   0.942   2.658
  380SOL    HW2 1276   1.223   0.855   2.540
  381SOL     OW 1277   0.798   1.280   3.289
  381SOL    HW1 1278   0.881   1.318   3.260
  381SOL    HW2 1279   0.808   1.186   3.277
  382SOL     OW 1280   0.644   1.677   1.995
  382SOL    HW1 1281   0.713   1.663   2.061
  382SOL    HW2 1282   0.581   1.607   2.012
  383SOL     OW 1283   1.659   1.701   3.234
  383SOL    HW1 1284   1.750   1.670   3.242
  383SOL    HW2 1285   1.657   1.783   3.282
  384SOL     OW 1286   1.795   0.216   2.776
  384SOL    HW1 1287   1.874   0.264   2.798
  384SOL    HW2 1288   1.823   0.125   2.770
  385SOL     OW 1289   0.229   0.322   2.560
  385SOL    HW1 1290   0.214   0.304   2.652
  385SOL    HW2 1291   0.184   0.405   2.544
  386SOL     OW 1292   1.190   1.675   1.936
  386SOL    HW1 1293   1.120   1.641   1.880
  386SOL    HW2 1294   1.268   1.624   1.910
  387SOL     OW 1295   0.816   1.022   3.194
  387SOL    HW1 1296   0.809   1.067   3.110
  387SOL    HW2 1297   0.864   0.941   3.175
  388SOL     OW 1298   0.953   0.891   2.187
  388SOL    HW1 1299   1.014   0.961   2.211
  388SOL    HW2 1300   0.866   0.931   2.195
  389SOL     OW 1301   1.450   1.595   1.892
  389SOL    HW1 1302   1.500   1.634   1.964
  389SOL    HW2 1303   1.498   1.621   1.813
  390SOL     OW 1304   0.397   1.253   3.261
  390SOL    HW1 1305   0.408   1.235   3.354
  390SOL    HW2 1306   0.348   1.178   3.228
  391SOL     OW 1307   1.626   1.327   3.190
  391SOL    HW1 1308   1.538   1.360   3.204
  391SOL    HW2 1309   1.652   1.365   3.105
  392SOL     OW 1310   1.034   1.122   2.577
  392SOL    HW1 1311   0.986   1.081   2.650
  392SOL    HW2 1312   1.100   1.058   2.553
  393SOL     OW 1313   1.026   0.265   2.836
  393SOL    HW1 1314   0.994   0.346   2.795
  393SOL    HW2 1315   1.023   0.200   2.767
  394SOL     OW 1316   0.578   1.542   2.311
  394SOL    HW1 1317   0.666   1.539   2.274
  394SOL    HW2 1318   0.583   1.488   2.390
  395SOL     OW 1319   1.713   0.382   3.256
  395SOL    HW1 1320   1.772   0.458   3.259
  395SOL    HW2 1321   1.634   0.415   3.214
  396SOL     OW 1322   0.307   1.319   2.190
  396SOL    HW1 1323   0.375   1.366   2.142
  396SOL    HW2 1324   0.244   1.293   2.123
  397SOL     OW 1325   0.082   1.027   3.634
  397SOL    HW1 1326   0.004   1.018   3.689
  397SOL    HW2 1327   0.118   1.112   3.658
  398SOL     OW 1328   0.651   0.211   3.371
  398SOL    HW1 1329   0.606   0.138   3.413
  398SOL    HW2 1330   0.723   0.170   3.322
  399SOL     OW 1331   0.055   0.318   1.827
  399SOL    HW1 1332   0.095   0.405   1.821
  399SOL    HW2 1333  -0.021   0.322   1.769
  400SOL     OW 1334   1.442   0.870   3.285
  400SOL    HW1 1335   1.527   0.849   3.323
  400SOL    HW2 1336   1.398   0.786   3.275
  401SOL     OW 1337   0.067   0.215   2.262
  401SOL    HW1 1338   0.103   0.152   2.323
  401SOL    HW2 1339   0.139   0.234   2.202
  402SOL     OW 1340   1.146   1.301   1.955
  402SOL    HW1 1341   1.199   1.329   2.030
  402SOL    HW2 1342   1.137   1.207   1.965
  403SOL     OW 1343   0.614   0.820   3.245
  403SOL    HW1 1344   0.548   0.821   3.315
  403SOL    HW2 1345   0.657   0.906   3.252
  404SOL     OW 1346   1.497   1.777   2.811
  404SOL    HW1 1347   1.514   1.857   2.761
  404SOL    HW2 1348   1.478   1.711   2.744
  405SOL     OW 1349   0.680   0.526   3.589
  405SOL    HW1 1350   0.640   0.612   3.601
  405SOL    HW2 1351   0.709   0.526   3.498
  406SOL     OW 1352   1.463   1.232   3.485
  406SOL    HW1 1353   1.558   1.224   3.472
  406SOL    HW2 1354   1.454   1.261   3.575
  407SOL     OW 1355   0.366   1.730   3.431
  407SOL    HW1 1356   0.422   1.792   3.479
  407SOL    HW2 1357   0.382   1.751   3.339
  408SOL     OW 1358   1.752   0.917   3.116
  408SOL    HW1 1359   1.752   0.923   3.211
  408SOL    HW2 1360   1.719   0.829   3.097
  409SOL     OW 1361   1.232   0.334   2.320
  409SOL    HW1 1362   1.141   0.304   2.328
  409SOL    HW2 1363   1.228   0.404   2.254
  410SOL     OW 1364   0.588   0.721   2.513
  410SOL    HW1 1365   0.554   0.691   2.598
  410SOL    HW2 1366   0.642   0.648   2.482
  411SOL     OW 1367   1.803   0.324   3.508
  411SOL    HW1 1368   1.777   0.403   3.556
  411SOL    HW2 1369   1.769   0.339   3.419
  412SOL     OW 1370   1.760   0.934   3.386
  412SOL    HW1 1371   1.754   1.023   3.420
  412SOL    HW2 1372   1.709   0.882   3.449
  413SOL     OW 1373   0.890   1.378   1.907
  413SOL    HW1 1374   0.975   1.342   1.928
  413SOL    HW2 1375   0.909   1.466   1.874
  414SOL     OW 1376   0.658   1.829   2.779
  414SOL    HW1 1377   0.671   1.872   2.864
  414SOL    HW2 1378   0.739   1.782   2.764
  415SOL     OW 1379   0.864   0.930   2.718
  415SOL    HW1 1380   0.787   0.928   2.774
  415SOL    HW2 1381   0.830   0.946   2.630
  416SOL     OW 1382   1.079   1.036   1.965
  416SOL    HW1 1383   1.041   0.959   2.007
  416SOL    HW2 1384   1.088   1.012   1.873
  417SOL     OW 1385   1.856   1.582   2.647
  417SOL    HW1 1386   1.806   1.635   2.584
  417SOL    HW2 1387   1.844   1.492   2.616
  418SOL     OW 1388   0.209   1.269   3.716
  418SOL    HW1 1389   0.260   1.301   3.790
  418SOL    HW2 1390   0.121   1.304   3.730
  419SOL     OW 1391   0.070   1.225   2.560
  419SOL    HW1 1392   0.146   1.181   2.522
  419SOL    HW2 1393   0.036   1.279   2.489
  420SOL     OW 1394   0.645   1.353   3.508
  420SOL    HW1 1395   0.655   1.446   3.523
  420SOL    HW2 1396   0.698   1.335   3.430
  421SOL     OW 1397   1.852   0.195   3.088
  421SOL    HW1 1398   1.806   0.238   3.160
  421SOL    HW2 1399   1.808   0.225   3.009
  422SOL     OW 1400   0.399   0.448   2.366
  422SOL    HW1 1401   0.363   0.390   2.433
  422SOL    HW2 1402   0.451   0.391   2.310
  423SOL     OW 1403   1.698   1.457   2.950
  423SOL    HW1 1404   1.727   1.548   2.948
  423SOL    HW2 1405   1.770   1.407   2.913
  424SOL     OW 1406   0.362   0.562   3.135
  424SOL    HW1 1407   0.399   0.502   3.199
  424SOL    HW2 1408   0.273   0.577   3.166
  425SOL     OW 1409   0.829   1.591   2.512
  425SOL    HW1 1410   0.854   1.617   2.601
  425SOL    HW2 1411   0.819   1.674   2.465
  426SOL     OW 1412   1.453   0.189   2.982
  426SOL    HW1 1413   1.405   0.267   3.009
  426SOL    HW2 1414   1.457   0.195   2.887
  427SOL     OW 1415   0.953   0.064   3.018
  427SOL    HW1 1416   0.905  -0.002   2.967
  427SOL    HW2 1417   0.987   0.125   2.952
  428SOL     OW 1418   0.731   1.318   2.127
  428SOL    HW1 1419   0.766   1.241   2.171
  428SOL    HW2 1420   0.791   1.334   2.055
  429SOL     OW 1421   0.645   1.562   3.097
  429SOL    HW1 1422   0.554   1.593   3.090
  429SOL    HW2 1423   0.639   1.468   3.083
  430SOL     OW 1424   1.330   0.044   1.938
  430SOL    HW1 1425   1.326   0.045   2.034
  430SOL    HW2 1426   1.239   0.057   1.911
  431SOL     OW 1427   1.304   0.447   2.571
  431SOL    HW1 1428   1.400   0.452   2.565
  431SOL    HW2 1429   1.278   0.401   2.492
  432SOL     OW 1430   1.537   0.156   2.709
  432SOL    HW1 1431   1.620   0.189   2.743
  432SOL    HW2 1432   1.541   0.174   2.615
  433SOL     OW 1433   0.041   1.097   2.156
  433SOL    HW1 1434  -0.031   1.047   2.120
  433SOL    HW2 1435   0.048   1.174   2.101
  434SOL     OW 1436   0.832   1.637   2.195
  434SOL    HW1 1437   0.868   1.716   2.234
  434SOL    HW2 1438   0.905   1.575   2.193
  435SOL     OW 1439   0.217   0.654   3.848
  435SOL    HW1 1440   0.244   0.735   3.805
  435SOL    HW2 1441   0.267   0.585   3.805
  436SOL     OW 1442   0.270   0.267   4.678
  436SOL    HW1 1443   0.296   0.269   4.771
  436SOL    HW2 1444   0.207   0.195   4.673
  437SOL     OW 1445   4.960   0.303   4.415
  437SOL    HW1 1446   5.049   0.337   4.422
  437SOL    HW2 1447   4.911   0.374   4.373
  438SOL     OW 1448   0.561   1.268   4.915
  438SOL    HW1 1449   0.647   1.306   4.932
  438SOL    HW2 1450   0.579   1.189   4.865
  439SOL     OW 1451   1.525   1.505   4.446
  439SOL    HW1 1452   1.435   1.537   4.458
  439SOL    HW2 1453   1.573   1.582   4.416
  440SOL     OW 1454   1.104   0.700   4.433
  440SOL    HW1 1455   1.040   0.641   4.473
  440SOL    HW2 1456   1.079   0.704   4.341
  441SOL     OW 1457   1.727   0.656   3.968
  441SOL    HW1 1458   1.796   0.707   4.012
  441SOL    HW2 1459   1.775   0.587   3.923
  442SOL     OW 1460   0.787   1.145   4.759
  442SOL    HW1 1461   0.866   1.158   4.812
  442SOL    HW2 1462   0.742   1.072   4.801
  443SOL     OW 1463   0.694   0.980   4.326
  443SOL    HW1 1464   0.752   0.982   4.402
  443SOL    HW2 1465   0.652   1.066   4.326
  444SOL     OW 1466   0.368   1.395   4.770
  444SOL    HW1 1467   0.434   1.349   4.822
  444SOL    HW2 1468   0.319   1.326   4.727
  445SOL     OW 1469   1.636   0.443   4.428
  445SOL    HW1 1470   1.605   0.363   4.471
  445SOL    HW2 1471   1.578   0.511   4.461
  446SOL     OW 1472   0.219   1.712   4.217
  446SOL    HW1 1473   0.136   1.726   4.264
  446SOL    HW2 1474   0.193   1.687   4.129
  447SOL     OW 1475   0.205   1.415   4.254
  447SOL    HW1 1476   0.253   1.493   4.279
  447SOL    HW2 1477   0.270   1.345   4.257
  448SOL     OW 1478   0.298   1.123   4.663
  448SOL    HW1 1479   0.298   1.028   4.677
  448SOL    HW2 1480   0.208   1.149   4.679
  449SOL     OW 1481   0.655   0.966   3.868
  449SOL    HW1 1482   0.744   0.937   3.886
  449SOL    HW2 1483   0.664   1.029   3.796
  450SOL     OW 1484   0.153   0.631   4.312
  450SOL    HW1 1485   0.178   0.556   4.366
  450SOL    HW2 1486   0.085   0.597   4.253
  451SOL     OW 1487   1.856   1.757   4.079
  451SOL    HW1 1488   1.764   1.737   4.061
  451SOL    HW2 1489   1.862   1.852   4.070
  452SOL     OW 1490   0.013   1.615   3.821
  452SOL    HW1 1491  -0.013   1.526   3.844
  452SOL    HW2 1492   0.091   1.604   3.766
  453SOL     OW 1493   1.604   0.899   4.333
  453SOL    HW1 1494   1.623   0.977   4.280
  453SOL    HW2 1495   1.640   0.827   4.282
  454SOL     OW 1496   1.654   1.097   4.150
  454SOL    HW1 1497   1.736   1.105   4.102
  454SOL    HW2 1498   1.653   1.173   4.209
  455SOL     OW 1499   0.677   1.344   4.415
  455SOL    HW1 1500   0.701   1.358   4.507
  455SOL    HW2 1501   0.583   1.329   4.417
  456SOL     OW 1502   0.842   4.994   4.240
  456SOL    HW1 1503   0.912   4.962   4.296
  456SOL    HW2 1504   0.807   4.916   4.198
  457SOL     OW 1505   0.171   1.013   4.987
  457SOL    HW1 1506   0.079   0.996   5.005
  457SOL    HW2 1507   0.175   1.106   4.966
  458SOL     OW 1508   1.505   0.905   3.909
  458SOL    HW1 1509   1.454   0.902   3.989
  458SOL    HW2 1510   1.568   0.834   3.917
  459SOL     OW 1511   1.508   1.392   4.698
  459SOL    HW1 1512   1.531   1.439   4.618
  459SOL    HW2 1513   1.467   1.312   4.668
  460SOL     OW 1514   1.659   1.716   4.347
  460SOL    HW1 1515   1.749   1.691   4.327
  460SOL    HW2 1516   1.651   1.805   4.312
  461SOL     OW 1517   0.572   0.720   3.959
  461SOL    HW1 1518   0.619   0.719   4.043
  461SOL    HW2 1519   0.595   0.804   3.920
  462SOL     OW 1520   1.291   0.332   4.679
  462SOL    HW1 1521   1.335   0.408   4.717
  462SOL    HW2 1522   1.296   0.345   4.585
  463SOL     OW 1523   1.598   1.707   4.003
  463SOL    HW1 1524   1.535   1.672   4.066
  463SOL    HW2 1525   1.565   1.680   3.918
  464SOL     OW 1526   1.046   0.706   4.159
  464SOL    HW1 1527   0.964   0.661   4.138
  464SOL    HW2 1528   1.113   0.656   4.112
  465SOL     OW 1529   0.112   0.853   4.485
  465SOL    HW1 1530   0.097   0.940   4.449
  465SOL    HW2 1531   0.130   0.799   4.408
  466SOL     OW 1532   0.113   1.742   0.306
  466SOL    HW1 1533   0.184   1.798   0.274
  466SOL    HW2 1534   0.040   1.802   0.320
  467SOL     OW 1535   0.865   0.356   3.937
  467SOL    HW1 1536   0.907   0.314   4.013
  467SOL    HW2 1537   0.938   0.378   3.879
  468SOL     OW 1538   1.369   1.105   4.272
  468SOL    HW1 1539   1.454   1.146   4.288
  468SOL    HW2 1540   1.386   1.043   4.201
  469SOL     OW 1541   0.494   0.131   4.584
  469SOL    HW1 1542   0.420   0.177   4.623
  469SOL    HW2 1543   0.566   0.194   4.587
  470SOL     OW 1544   0.998   1.430   4.198
  470SOL    HW1 1545   0.962   1.474   4.275
  470SOL    HW2 1546   0.922   1.388   4.157
  471SOL     OW 1547   0.345   1.797   4.628
  471SOL    HW1 1548   0.353   1.836   4.541
  471SOL    HW2 1549   0.409   1.725   4.628
  472SOL     OW 1550   1.790   1.116   4.543
  472SOL    HW1 1551   1.873   1.070   4.557
  472SOL    HW2 1552   1.743   1.106   4.626
  473SOL     OW 1553   0.358   0.957   3.992
  473SOL    HW1 1554   0.452   0.953   3.977
  473SOL    HW2 1555   0.319   0.935   3.907
  474SOL     OW 1556   1.468   0.681   4.435
  474SOL    HW1 1557   1.504   0.767   4.452
  474SOL    HW2 1558   1.489   0.664   4.343
  475SOL     OW 1559   1.078   1.870   3.990
  475SOL    HW1 1560   1.022   1.793   4.003
  475SOL    HW2 1561   1.117   1.857   3.904
  476SOL     OW 1562   1.608   1.397   3.805
  476SOL    HW1 1563   1.694   1.378   3.842
  476SOL    HW2 1564   1.565   1.311   3.799
  477SOL     OW 1565   0.488   1.735   4.026
  477SOL    HW1 1566   0.544   1.709   3.952
  477SOL    HW2 1567   0.488   1.659   4.084
  478SOL     OW 1568   1.412   0.106   4.157
  478SOL    HW1 1569   1.507   0.101   4.165
  478SOL    HW2 1570   1.379   0.037   4.214
  479SOL     OW 1571   0.298   1.790   4.955
  479SOL    HW1 1572   0.380   1.796   4.906
  479SOL    HW2 1573   0.243   1.858   4.916
  480SOL     OW 1574   0.954   1.663   4.648
  480SOL    HW1 1575   1.030   1.607   4.637
  480SOL    HW2 1576   0.962   1.729   4.580
  481SOL     OW 1577   0.393   0.717   4.212
  481SOL    HW1 1578   0.307   0.693   4.246
  481SOL    HW2 1579   0.376   0.756   4.126
  482SOL     OW 1580   0.543   0.074   3.794
  482SOL    HW1 1581   0.466   0.055   3.848
  482SOL    HW2 1582   0.617   0.061   3.853
  483SOL     OW 1583   0.760   1.422   4.661
  483SOL    HW1 1584   0.839   1.476   4.669
  483SOL    HW2 1585   0.779   1.343   4.712
  484SOL     OW 1586   0.959   0.523   4.634
  484SOL    HW1 1587   0.995   0.445   4.677
  484SOL    HW2 1588   0.879   0.492   4.592
  485SOL     OW 1589   0.554   0.041   4.229
  485SOL    HW1 1590   0.646   0.036   4.256
  485SOL    HW2 1591   0.550   0.118   4.173
  486SOL     OW 1592   1.464   1.149   3.761
  486SOL    HW1 1593   1.475   1.094   3.839
  486SOL    HW2 1594   1.413   1.096   3.701
  487SOL     OW 1595   0.321  -0.002   3.952
  487SOL    HW1 1596   0.316  -0.024   4.045
  487SOL    HW2 1597   0.303   0.091   3.947
  488SOL     OW 1598   0.943   0.262   4.186
  488SOL    HW1 1599   0.908   0.326   4.247
  488SOL    HW2 1600   0.914   0.177   4.220
  489SOL     OW 1601   1.273   1.583   4.489
  489SOL    HW1 1602   1.234   1.655   4.439
  489SOL    HW2 1603   1.201   1.521   4.500
  490SOL     OW 1604   0.451   1.165   4.442
  490SOL    HW1 1605   0.527   1.136   4.492
  490SOL    HW2 1606   0.378   1.158   4.504
  491SOL     OW 1607   1.239   1.836   4.376
  491SOL    HW1 1608   1.322   1.848   4.422
  491SOL    HW2 1609   1.258   1.860   4.285
  492SOL     OW 1610   1.077   0.541   3.780
  492SOL    HW1 1611   1.065   0.631   3.748
  492SOL    HW2 1612   1.088   0.489   3.701
  493SOL     OW 1613   0.817   0.464   4.342
  493SOL    HW1 1614   0.751   0.465   4.412
  493SOL    HW2 1615   0.792   0.536   4.285
  494SOL     OW 1616   0.981   0.054   4.531
  494SOL    HW1 1617   0.914   0.002   4.575
  494SOL    HW2 1618   1.027  -0.009   4.475
  495SOL     OW 1619   1.388   1.176   4.584
  495SOL    HW1 1620   1.411   1.205   4.496
  495SOL    HW2 1621   1.350   1.089   4.571
  496SOL     OW 1622   1.439   0.542   4.760
  496SOL    HW1 1623   1.532   0.551   4.780
  496SOL    HW2 1624   1.407   0.632   4.756
  497SOL     OW 1625   1.856   0.816   4.167
  497SOL    HW1 1626   1.867   0.836   4.260
  497SOL    HW2 1627   1.863   0.901   4.123
  498SOL     OW 1628   0.541   1.359   3.864
  498SOL    HW1 1629   0.601   1.357   3.939
  498SOL    HW2 1630   0.537   1.267   3.836
  499SOL     OW 1631   1.599   1.248   4.375
  499SOL    HW1 1632   1.663   1.214   4.437
  499SOL    HW2 1633   1.590   1.341   4.399
  500SOL     OW 1634   1.444   0.595   3.781
  500SOL    HW1 1635   1.394   0.589   3.862
  500SOL    HW2 1636   1.391   0.549   3.716
  501SOL     OW 1637   0.574   0.266   4.066
  501SOL    HW1 1638   0.534   0.334   4.011
  501SOL    HW2 1639   0.646   0.232   4.014
  502SOL     OW 1640   1.030   1.220   4.884
  502SOL    HW1 1641   1.098   1.279   4.852
  502SOL    HW2 1642   1.066   1.182   4.964
  503SOL     OW 1643   1.682   1.115   4.810
  503SOL    HW1 1644   1.745   1.159   4.867
  503SOL    HW2 1645   1.610   1.178   4.801
  504SOL     OW 1646   0.720   1.118   4.086
  504SOL    HW1 1647   0.742   1.057   4.156
  504SOL    HW2 1648   0.692   1.063   4.013
  505SOL     OW 1649   0.394   0.844   4.982
  505SOL    HW1 1650   0.350   0.768   5.019
  505SOL    HW2 1651   0.323   0.905   4.962
  506SOL     OW 1652   0.355   1.176   4.177
  506SOL    HW1 1653   0.386   1.156   4.265
  506SOL    HW2 1654   0.350   1.090   4.133
  507SOL     OW 1655   0.638   0.543   4.563
  507SOL    HW1 1656   0.631   0.610   4.495
  507SOL    HW2 1657   0.548   0.527   4.591
  508SOL     OW 1658   1.254   1.345   4.134
  508SOL    HW1 1659   1.275   1.266   4.185
  508SOL    HW2 1660   1.167   1.370   4.163
  509SOL     OW 1661   1.244   1.379   4.813
  509SOL    HW1 1662   1.260   1.397   4.905
  509SOL    HW2 1663   1.322   1.414   4.769
  510SOL     OW 1664   1.589   0.624   4.199
  510SOL    HW1 1665   1.657   0.578   4.248
  510SOL    HW2 1666   1.627   0.637   4.112
  511SOL     OW 1667   0.580   0.941   4.781
  511SOL    HW1 1668   0.550   0.886   4.853
  511SOL    HW2 1669   0.516   0.925   4.711
  512SOL     OW 1670   1.341   0.802   4.756
  512SOL    HW1 1671   1.352   0.889   4.795
  512SOL    HW2 1672   1.332   0.820   4.662
  513SOL     OW 1673   1.232   0.575   4.001
  513SOL    HW1 1674   1.179   0.562   3.922
  513SOL    HW2 1675   1.238   0.487   4.040
  514SOL     OW 1676   0.328   0.256   4.937
  514SOL    HW1 1677   0.398   0.226   4.995
  514SOL    HW2 1678   0.254   0.275   4.994
  515SOL     OW 1679   0.074   1.352   4.974
  515SOL    HW1 1680   0.153   1.399   4.999
  515SOL    HW2 1681   0.006   1.419   4.971
  516SOL     OW 1682   0.729   0.613   4.817
  516SOL    HW1 1683   0.821   0.636   4.802
  516SOL    HW2 1684   0.694   0.596   4.729
  517SOL     OW 1685   0.250   0.113   4.291
  517SOL    HW1 1686   0.206   0.119   4.376
  517SOL    HW2 1687   0.340   0.140   4.308
  518SOL     OW 1688   1.559   0.350   4.114
  518SOL    HW1 1689   1.542   0.434   4.157
  518SOL    HW2 1690   1.489   0.292   4.145
  519SOL     OW 1691   0.987   0.786   4.697
  519SOL    HW1 1692   1.061   0.819   4.646
  519SOL    HW2 1693   0.986   0.692   4.680
  520SOL     OW 1694   1.526   0.279   3.844
  520SOL    HW1 1695   1.548   0.312   3.931
  520SOL    HW2 1696   1.461   0.210   3.860
  521SOL     OW 1697   1.266   0.852   3.762
  521SOL    HW1 1698   1.348   0.853   3.812
  521SOL    HW2 1699   1.289   0.888   3.677
  522SOL     OW 1700   1.085   1.397   4.567
  522SOL    HW1 1701   1.133   1.373   4.646
  522SOL    HW2 1702   1.068   1.314   4.523
  523SOL     OW 1703   0.328   0.834   4.658
  523SOL    HW1 1704   0.334   0.744   4.689
  523SOL    HW2 1705   0.263   0.831   4.587
  524SOL     OW 1706   0.301   0.557   4.725
  524SOL    HW1 1707   0.232   0.566   4.790
  524SOL    HW2 1708   0.304   0.464   4.705
  525SOL     OW 1709   1.168   0.215   0.144
  525SOL    HW1 1710   1.142   0.302   0.114
  525SOL    HW2 1711   1.085   0.166   0.150
  526SOL     OW 1712   4.984   1.347   3.862
  526SOL    HW1 1713   5.065   1.341   3.914
  526SOL    HW2 1714   4.924   1.286   3.906
  527SOL     OW 1715   0.080   1.858   4.626
  527SOL    HW1 1716   0.167   1.818   4.630
  527SOL    HW2 1717   0.096   1.952   4.632
  528SOL     OW 1718   0.533   1.580   4.651
  528SOL    HW1 1719   0.612   1.526   4.656
  528SOL    HW2 1720   0.463   1.524   4.686
  529SOL     OW 1721   0.974   0.805   4.971
  529SOL    HW1 1722   0.893   0.853   4.989
  529SOL    HW2 1723   0.981   0.804   4.876
  530SOL     OW 1724   0.038   0.504   4.846
  530SOL    HW1 1725  -0.035   0.538   4.897
  530SOL    HW2 1726   0.002   0.491   4.759
  531SOL     OW 1727   0.820   0.598   4.052
  531SOL    HW1 1728   0.802   0.645   3.971
  531SOL    HW2 1729   0.822   0.505   4.026
  532SOL     OW 1730   1.673   0.597   4.932
  532SOL    HW1 1731   1.679   0.692   4.938
  532SOL    HW2 1732   1.594   0.574   4.981
  533SOL     OW 1733   0.621   0.425   4.984
  533SOL    HW1 1734   0.697   0.400   5.036
  533SOL    HW2 1735   0.653   0.494   4.925
  534SOL     OW 1736   0.489   0.470   3.895
  534SOL    HW1 1737   0.505   0.560   3.923
  534SOL    HW2 1738   0.535   0.462   3.812
  535SOL     OW 1739   1.321   1.048   4.884
  535SOL    HW1 1740   1.248   1.042   4.945
  535SOL    HW2 1741   1.295   1.117   4.823
  536SOL     OW 1742   1.307   0.847   4.097
  536SOL    HW1 1743   1.220   0.859   4.134
  536SOL    HW2 1744   1.307   0.758   4.062
  537SOL     OW 1745   1.718   1.789   4.815
  537SOL    HW1 1746   1.757   1.867   4.855
  537SOL    HW2 1747   1.763   1.715   4.856
  538SOL     OW 1748   0.061   1.230   4.726
  538SOL    HW1 1749   0.064   1.278   4.809
  538SOL    HW2 1750  -0.032   1.212   4.712
  539SOL     OW 1751   1.687   0.096   4.205
  539SOL    HW1 1752   1.750   0.061   4.268
  539SOL    HW2 1753   1.692   0.191   4.216
  540SOL     OW 1754   1.415   1.571   4.158
  540SOL    HW1 1755   1.459   1.546   4.239
  540SOL    HW2 1756   1.358   1.497   4.139
  541SOL     OW 1757   1.261   0.938   4.481
  541SOL    HW1 1758   1.227   0.853   4.453
  541SOL    HW2 1759   1.305   0.973   4.403
  542SOL     OW 1760   0.648   1.615   3.838
  542SOL    HW1 1761   0.732   1.609   3.884
  542SOL    HW2 1762   0.613   1.526   3.841
  543SOL     OW 1763   1.720   1.717   0.095
  543SOL    HW1 1764   1.677   1.785   0.043
  543SOL    HW2 1765   1.663   1.706   0.171
  544SOL     OW 1766   1.820   0.163   4.676
  544SOL    HW1 1767   1.912   0.175   4.654
  544SOL    HW2 1768   1.817   0.170   4.771
  545SOL     OW 1769   0.227   0.395   4.437
  545SOL    HW1 1770   0.245   0.355   4.522
  545SOL    HW2 1771   0.310   0.386   4.389
  546SOL     OW 1772   1.217   1.584   3.728
  546SOL    HW1 1773   1.308   1.609   3.747
  546SOL    HW2 1774   1.224   1.519   3.658
  547SOL     OW 1775   0.812   1.038   0.069
  547SOL    HW1 1776   0.860   1.006   0.145
  547SOL    HW2 1777   0.823   1.133   0.071
  548SOL     OW 1778   0.897   0.881   3.972
  548SOL    HW1 1779   0.947   0.836   4.040
  548SOL    HW2 1780   0.912   0.829   3.893
  549SOL     OW 1781   1.486   1.632   3.757
  549SOL    HW1 1782   1.526   1.652   3.673
  549SOL    HW2 1783   1.523   1.547   3.782
  550SOL     OW 1784   1.057   1.139   4.475
  550SOL    HW1 1785   1.128   1.076   4.471
  550SOL    HW2 1786   0.978   1.085   4.486
  551SOL     OW 1787   1.030   0.256   4.709
  551SOL    HW1 1788   1.124   0.275   4.704
  551SOL    HW2 1789   1.015   0.193   4.638
  552SOL     OW 1790   0.550   1.520   4.185
  552SOL    HW1 1791   0.630   1.544   4.233
  552SOL    HW2 1792   0.569   1.433   4.150
  553SOL     OW 1793   1.757   0.365   0.067
  553SOL    HW1 1794   1.755   0.383   0.161
  553SOL    HW2 1795   1.742   0.449   0.026
  554SOL     OW 1796   0.228   1.343   3.989
  554SOL    HW1 1797   0.209   1.399   4.063
  554SOL    HW2 1798   0.278   1.270   4.027
  555SOL     OW 1799   0.039   0.291   3.734
  555SOL    HW1 1800   0.036   0.374   3.782
  555SOL    HW2 1801   0.131   0.282   3.708
  556SOL     OW 1802   0.033   0.262   4.095
  556SOL    HW1 1803   0.103   0.224   4.149
  556SOL    HW2 1804  -0.003   0.187   4.048
  557SOL     OW 1805   1.138   1.364   3.876
  557SOL    HW1 1806   1.192   1.344   3.953
  557SOL    HW2 1807   1.175   1.445   3.841
  558SOL     OW 1808   1.468   1.767   4.723
  558SOL    HW1 1809   1.561   1.779   4.742
  558SOL    HW2 1810   1.467   1.711   4.645
  559SOL     OW 1811   1.658   0.875   4.963
  559SOL    HW1 1812   1.703   0.911   5.040
  559SOL    HW2 1813   1.660   0.945   4.899
  560SOL     OW 1814   1.211   0.321   4.104
  560SOL    HW1 1815   1.125   0.297   4.140
  560SOL    HW2 1816   1.268   0.248   4.127
  561SOL     OW 1817   0.621   0.713   4.353
  561SOL    HW1 1818   0.655   0.803   4.346
  561SOL    HW2 1819   0.538   0.716   4.307
  562SOL     OW 1820   1.760   0.959   0.204
  562SOL    HW1 1821   1.841   1.004   0.226
  562SOL    HW2 1822   1.774   0.868   0.231
  563SOL     OW 1823   0.886   1.383   3.789
  563SOL    HW1 1824   0.975   1.363   3.818
  563SOL    HW2 1825   0.896   1.454   3.726
  564SOL     OW 1826   0.677   1.814   4.631
  564SOL    HW1 1827   0.757   1.793   4.680
  564SOL    HW2 1828   0.624   1.735   4.637
  565SOL     OW 1829   0.840   0.981   4.551
  565SOL    HW1 1830   0.866   0.904   4.602
  565SOL    HW2 1831   0.816   1.047   4.617
  566SOL     OW 1832   1.058   1.023   3.791
  566SOL    HW1 1833   1.014   1.005   3.873
  566SOL    HW2 1834   1.131   0.961   3.788
  567SOL     OW 1835   1.867   1.499   4.562
  567SOL    HW1 1836   1.885   1.592   4.576
  567SOL    HW2 1837   1.915   1.478   4.482
  568SOL     OW 1838   0.059   1.116   4.417
  568SOL    HW1 1839   0.080   1.202   4.454
  568SOL    HW2 1840  -0.035   1.118   4.402
  569SOL     OW 1841   1.887   0.162   4.946
  569SOL    HW1 1842   1.978   0.175   4.974
  569SOL    HW2 1843   1.839   0.231   4.991
  570SOL     OW 1844   0.463   0.392   4.294
  570SOL    HW1 1845   0.485   0.482   4.273
  570SOL    HW2 1846   0.502   0.340   4.223
  571SOL     OW 1847   1.772   1.506   4.844
  571SOL    HW1 1848   1.687   1.491   4.885
  571SOL    HW2 1849   1.755   1.503   4.750
  572SOL     OW 1850   0.796   1.578   4.342
  572SOL    HW1 1851   0.781   1.638   4.415
  572SOL    HW2 1852   0.765   1.493   4.374
  573SOL     OW 1853   1.461   0.163   4.823
  573SOL    HW1 1854   1.404   0.235   4.793
  573SOL    HW2 1855   1.400   0.095   4.850
  574SOL     OW 1856   1.003   0.010   4.861
  574SOL    HW1 1857   1.097  -0.010   4.858
  574SOL    HW2 1858   0.996   0.101   4.833
  575SOL     OW 1859   0.763   1.373   4.034
  575SOL    HW1 1860   0.755   1.280   4.057
  575SOL    HW2 1861   0.812   1.374   3.953
  576SOL     OW 1862   1.361   0.066   3.885
  576SOL    HW1 1863   1.365   0.067   3.980
  576SOL    HW2 1864   1.343  -0.026   3.863
  577SOL     OW 1865   1.294   0.471   4.440
  577SOL    HW1 1866   1.211   0.518   4.442
  577SOL    HW2 1867   1.361   0.539   4.441
  578SOL     OW 1868   1.578   0.213   4.562
  578SOL    HW1 1869   1.522   0.190   4.636
  578SOL    HW2 1870   1.666   0.186   4.589
  579SOL     OW 1871   0.022   1.098   4.022
  579SOL    HW1 1872  -0.031   1.059   3.952
  579SOL    HW2 1873   0.088   1.031   4.042
  580SOL     OW 1874   0.903   1.666   4.066
  580SOL    HW1 1875   0.950   1.586   4.086
  580SOL    HW2 1876   0.838   1.674   4.137
  581SOL     OW 1877   0.238   2.513   0.148
  581SOL    HW1 1878   0.238   2.571   0.225
  581SOL    HW2 1879   0.279   2.565   0.079
  582SOL     OW 1880   0.250   2.130   0.990
  582SOL    HW1 1881   0.269   2.114   1.083
  582SOL    HW2 1882   0.226   2.045   0.955
  583SOL     OW 1883   4.930   2.176   0.603
  583SOL    HW1 1884   4.955   2.178   0.696
  583SOL    HW2 1885   4.935   2.267   0.575
  584SOL     OW 1886   0.571   3.171   1.210
  584SOL    HW1 1887   0.546   3.099   1.269
  584SOL    HW2 1888   0.632   3.132   1.148
  585SOL     OW 1889   1.532   3.374   0.652
  585SOL    HW1 1890   1.593   3.447   0.649
  585SOL    HW2 1891   1.516   3.359   0.745
  586SOL     OW 1892   1.140   2.542   0.700
  586SOL    HW1 1893   1.186   2.625   0.686
  586SOL    HW2 1894   1.096   2.553   0.785
  587SOL     OW 1895   1.821   2.506   0.252
  587SOL    HW1 1896   1.802   2.452   0.329
  587SOL    HW2 1897   1.804   2.448   0.177
  588SOL     OW 1898   0.774   3.039   1.061
  588SOL    HW1 1899   0.858   3.042   1.106
  588SOL    HW2 1900   0.781   2.964   1.001
  589SOL     OW 1901   0.821   2.717   1.853
  589SOL    HW1 1902   0.796   2.626   1.845
  589SOL    HW2 1903   0.883   2.731   1.780
  590SOL     OW 1904   0.745   2.913   0.659
  590SOL    HW1 1905   0.652   2.913   0.681
  590SOL    HW2 1906   0.749   2.879   0.570
  591SOL     OW 1907   0.723   2.993   1.792
  591SOL    HW1 1908   0.630   3.012   1.782
  591SOL    HW2 1909   0.726   2.899   1.808
  592SOL     OW 1910   0.285   3.291   1.044
  592SOL    HW1 1911   0.368   3.314   1.002
  592SOL    HW2 1912   0.296   3.317   1.136
  593SOL     OW 1913   1.475   3.415   1.325
  593SOL    HW1 1914   1.526   3.335   1.338
  593SOL    HW2 1915   1.536   3.486   1.344
  594SOL     OW 1916   0.427   2.263   1.576
  594SOL    HW1 1917   0.467   2.349   1.563
  594SOL    HW2 1918   0.455   2.212   1.500
  595SOL     OW 1919   1.564   2.322   0.724
  595SOL    HW1 1920   1.469   2.311   0.725
  595SOL    HW2 1921   1.581   2.384   0.653
  596SOL     OW 1922   0.238   3.525   0.586
  596SOL    HW1 1923   0.144   3.538   0.593
  596SOL    HW2 1924   0.257   3.537   0.493
  597SOL     OW 1925   1.191   3.205   1.680
  597SOL    HW1 1926   1.153   3.289   1.653
  597SOL    HW2 1927   1.116   3.153   1.709
  598SOL     OW 1928   0.241   3.240   0.532
  598SOL    HW1 1929   0.286   3.318   0.564
  598SOL    HW2 1930   0.150   3.253   0.558
  599SOL     OW 1931   0.247   2.942   0.884
  599SOL    HW1 1932   0.272   2.862   0.930
  599SOL    HW2 1933   0.327   2.968   0.837
  600SOL     OW 1934   0.645   3.670   1.420
  600SOL    HW1 1935   0.711   3.629   1.476
  600SOL    HW2 1936   0.623   3.602   1.356
  601SOL     OW 1937   0.546   2.864   0.068
  601SOL    HW1 1938   0.548   2.870   0.163
  601SOL    HW2 1939   0.638   2.870   0.042
  602SOL     OW 1940   1.532   2.023   1.465
  602SOL    HW1 1941   1.541   2.027   1.561
  602SOL    HW2 1942   1.561   1.935   1.442
  603SOL     OW 1943   0.092   2.553   0.536
  603SOL    HW1 1944   0.011   2.589   0.502
  603SOL    HW2 1945   0.108   2.475   0.483
  604SOL     OW 1946   1.869   3.603   0.363
  604SOL    HW1 1947   1.943   3.594   0.422
  604SOL    HW2 1948   1.792   3.587   0.418
  605SOL     OW 1949   0.000   3.511   0.131
  605SOL    HW1 1950   0.070   3.446   0.127
  605SOL    HW2 1951  -0.026   3.523   0.039
  606SOL     OW 1952   1.688   2.737   0.623
  606SOL    HW1 1953   1.723   2.784   0.699
  606SOL    HW2 1954   1.761   2.735   0.560
  607SOL     OW 1955   1.639   3.024   0.386
  607SOL    HW1 1956   1.667   3.041   0.476
  607SOL    HW2 1957   1.664   3.103   0.338
  608SOL     OW 1958   0.102   2.626   1.610
  608SOL    HW1 1959   0.130   2.563   1.677
  608SOL    HW2 1960   0.082   2.573   1.533
  609SOL     OW 1961   0.611   3.221   0.720
  609SOL    HW1 1962   0.587   3.264   0.638
  609SOL    HW2 1963   0.694   3.177   0.700
  610SOL     OW 1964   1.277   3.024   1.500
  610SOL    HW1 1965   1.243   3.091   1.559
  610SOL    HW2 1966   1.238   3.044   1.415
  611SOL     OW 1967   0.833   1.867   0.562
  611SOL    HW1 1968   0.894   1.874   0.636
  611SOL    HW2 1969   0.858   1.940   0.504
  612SOL     OW 1970   0.226   2.820   1.255
  612SOL    HW1 1971   0.272   2.887   1.205
  612SOL    HW2 1972   0.157   2.789   1.196
  613SOL     OW 1973   1.485   2.820   0.164
  613SOL    HW1 1974   1.420   2.787   0.226
  613SOL    HW2 1975   1.456   2.909   0.143
  614SOL     OW 1976   1.174   3.658   1.700
  614SOL    HW1 1977   1.101   3.597   1.703
  614SOL    HW2 1978   1.231   3.625   1.631
  615SOL     OW 1979   0.308   2.111   1.765
  615SOL    HW1 1980   0.356   2.169   1.705
  615SOL    HW2 1981   0.349   2.025   1.752
  616SOL     OW 1982   1.439   3.283   0.920
  616SOL    HW1 1983   1.523   3.295   0.964
  616SOL    HW2 1984   1.374   3.286   0.990
  617SOL     OW 1985   1.718   3.578   0.609
  617SOL    HW1 1986   1.769   3.548   0.685
  617SOL    HW2 1987   1.727   3.673   0.612
  618SOL     OW 1988   0.572   2.624   0.258
  618SOL    HW1 1989   0.650   2.612   0.311
  618SOL    HW2 1990   0.549   2.537   0.228
  619SOL     OW 1991   1.226   2.285   0.986
  619SOL    HW1 1992   1.153   2.223   0.988
  619SOL    HW2 1993   1.254   2.286   0.894
  620SOL     OW 1994   1.570   3.488   0.302
  620SOL    HW1 1995   1.488   3.477   0.351
  620SOL    HW2 1996   1.621   3.410   0.323
  621SOL     OW 1997   0.795   2.462   1.475
  621SOL    HW1 1998   0.857   2.511   1.421
  621SOL    HW2 1999   0.813   2.370   1.455
  622SOL     OW 2000   1.414   2.307   1.705
  622SOL    HW1 2001   1.494   2.348   1.672
  622SOL    HW2 2002   1.400   2.348   1.791
  623SOL     OW 2003   0.966   2.765   1.610
  623SOL    HW1 2004   1.018   2.687   1.595
  623SOL    HW2 2005   0.941   2.794   1.522
  624SOL     OW 2006   0.979   2.207   1.276
  624SOL    HW1 2007   1.062   2.245   1.303
  624SOL    HW2 2008   0.995   2.175   1.187
  625SOL     OW 2009   1.083   2.545   0.428
  625SOL    HW1 2010   1.087   2.541   0.523
  625SOL    HW2 2011   1.027   2.620   0.409
  626SOL     OW 2012   0.107   2.628   0.804
  626SOL    HW1 2013   0.108   2.536   0.833
  626SOL    HW2 2014   0.107   2.623   0.709
  627SOL     OW 2015   0.137   3.659   1.555
  627SOL    HW1 2016   0.109   3.743   1.519
  627SOL    HW2 2017   0.114   3.596   1.487
  628SOL     OW 2018   0.875   2.245   0.199
  628SOL    HW1 2019   0.963   2.233   0.233
  628SOL    HW2 2020   0.831   2.161   0.214
  629SOL     OW 2021   1.694   2.422   1.758
  629SOL    HW1 2022   1.720   2.426   1.850
  629SOL    HW2 2023   1.648   2.505   1.742
  630SOL     OW 2024   1.402   2.992   0.544
  630SOL    HW1 2025   1.458   3.031   0.611
  630SOL    HW2 2026   1.461   2.972   0.471
  631SOL     OW 2027   0.532   2.136   0.850
  631SOL    HW1 2028   0.540   2.115   0.943
  631SOL    HW2 2029   0.535   2.052   0.806
  632SOL     OW 2030   0.966   3.280   0.514
  632SOL    HW1 2031   0.942   3.344   0.448
  632SOL    HW2 2032   1.041   3.233   0.477
  633SOL     OW 2033   0.404   3.612   0.822
  633SOL    HW1 2034   0.368   3.697   0.797
  633SOL    HW2 2035   0.352   3.548   0.773
  634SOL     OW 2036   1.766   2.882   0.845
  634SOL    HW1 2037   1.828   2.942   0.887
  634SOL    HW2 2038   1.683   2.930   0.844
  635SOL     OW 2039   1.284   3.461   1.531
  635SOL    HW1 2040   1.344   3.413   1.588
  635SOL    HW2 2041   1.323   3.456   1.444
  636SOL     OW 2042   0.322   2.774   0.281
  636SOL    HW1 2043   0.341   2.820   0.363
  636SOL    HW2 2044   0.402   2.726   0.261
  637SOL     OW 2045   1.463   2.646   0.765
  637SOL    HW1 2046   1.390   2.689   0.720
  637SOL    HW2 2047   1.540   2.668   0.713
  638SOL     OW 2048   0.454   3.051   1.764
  638SOL    HW1 2049   0.368   3.083   1.791
  638SOL    HW2 2050   0.462   3.080   1.673
  639SOL     OW 2051   1.109   3.684   0.293
  639SOL    HW1 2052   1.024   3.714   0.262
  639SOL    HW2 2053   1.134   3.615   0.232
  640SOL     OW 2054   0.153   2.164   1.481
  640SOL    HW1 2055   0.181   2.128   1.565
  640SOL    HW2 2056   0.064   2.133   1.470
  641SOL     OW 2057   1.608   3.240   0.036
  641SOL    HW1 2058   1.671   3.241   0.108
  641SOL    HW2 2059   1.560   3.323   0.046
  642SOL     OW 2060   0.531   3.594   0.381
  642SOL    HW1 2061   0.608   3.585   0.325
  642SOL    HW2 2062   0.468   3.641   0.327
  643SOL     OW 2063   0.208   3.689   1.234
  643SOL    HW1 2064   0.124   3.667   1.194
  643SOL    HW2 2065   0.269   3.626   1.197
  644SOL     OW 2066   0.945   3.600   0.948
  644SOL    HW1 2067   0.976   3.642   0.868
  644SOL    HW2 2068   0.968   3.508   0.937
  645SOL     OW 2069   0.369   2.533   0.467
  645SOL    HW1 2070   0.441   2.582   0.507
  645SOL    HW2 2071   0.290   2.573   0.503
  646SOL     OW 2072   1.558   2.076   1.739
  646SOL    HW1 2073   1.582   2.086   1.831
  646SOL    HW2 2074   1.498   2.148   1.721
  647SOL     OW 2075   0.567   1.943   0.031
  647SOL    HW1 2076   0.629   1.984   0.091
  647SOL    HW2 2077   0.605   1.857   0.012
  648SOL     OW 2078   0.706   2.142   1.721
  648SOL    HW1 2079   0.696   2.091   1.801
  648SOL    HW2 2080   0.707   2.233   1.750
  649SOL     OW 2081   0.868   3.356   1.220
  649SOL    HW1 2082   0.786   3.405   1.222
  649SOL    HW2 2083   0.850   3.276   1.270
  650SOL     OW 2084   1.332   2.521   1.361
  650SOL    HW1 2085   1.253   2.556   1.320
  650SOL    HW2 2086   1.327   2.427   1.344
  651SOL     OW 2087   0.853   3.304   0.935
  651SOL    HW1 2088   0.871   3.325   1.027
  651SOL    HW2 2089   0.781   3.241   0.939
  652SOL     OW 2090   0.897   2.367   0.905
  652SOL    HW1 2091   0.926   2.284   0.942
  652SOL    HW2 2092   0.826   2.396   0.963
  653SOL     OW 2093   0.560   1.923   0.526
  653SOL    HW1 2094   0.648   1.902   0.555
  653SOL    HW2 2095   0.572   1.990   0.458
  654SOL     OW 2096   1.397   3.071   0.069
  654SOL    HW1 2097   1.324   3.130   0.084
  654SOL    HW2 2098   1.473   3.130   0.059
  655SOL     OW 2099   0.306   1.902   0.207
  655SOL    HW1 2100   0.315   1.996   0.193
  655SOL    HW2 2101   0.310   1.864   0.119
  656SOL     OW 2102   0.939   2.098   0.460
  656SOL    HW1 2103   0.909   2.168   0.518
  656SOL    HW2 2104   1.034   2.100   0.465
  657SOL     OW 2105   1.114   2.490   1.555
  657SOL    HW1 2106   1.208   2.499   1.539
  657SOL    HW2 2107   1.073   2.514   1.472
  658SOL     OW 2108   1.237   3.481   0.844
  658SOL    HW1 2109   1.286   3.400   0.846
  658SOL    HW2 2110   1.233   3.505   0.751
  659SOL     OW 2111   0.476   2.975   0.735
  659SOL    HW1 2112   0.509   3.064   0.741
  659SOL    HW2 2113   0.434   2.970   0.650
  660SOL     OW 2114   1.223   3.669   0.545
  660SOL    HW1 2115   1.167   3.705   0.613
  660SOL    HW2 2116   1.173   3.681   0.464
  661SOL     OW 2117   1.010   2.418   0.009
  661SOL    HW1 2118   0.969   2.374   0.084
  661SOL    HW2 2119   1.049   2.347  -0.042
  662SOL     OW 2120   0.044   2.424   1.432
  662SOL    HW1 2121   0.059   2.436   1.338
  662SOL    HW2 2122   0.084   2.339   1.452
  663SOL     OW 2123   0.576   2.059   1.123
  663SOL    HW1 2124   0.631   2.124   1.167
  663SOL    HW2 2125   0.495   2.056   1.174
  664SOL     OW 2126   0.884   2.312   0.622
  664SOL    HW1 2127   0.887   2.338   0.714
  664SOL    HW2 2128   0.886   2.395   0.574
  665SOL     OW 2129   1.038   1.896   0.746
  665SOL    HW1 2130   1.084   1.883   0.829
  665SOL    HW2 2131   1.104   1.876   0.679
  666SOL     OW 2132   1.496   3.010   0.885
  666SOL    HW1 2133   1.415   2.962   0.870
  666SOL    HW2 2134   1.471   3.102   0.885
  667SOL     OW 2135   1.455   2.446   1.022
  667SOL    HW1 2136   1.379   2.389   1.017
  667SOL    HW2 2137   1.480   2.462   0.931
  668SOL     OW 2138   1.885   2.707   0.424
  668SOL    HW1 2139   1.908   2.787   0.376
  668SOL    HW2 2140   1.860   2.645   0.355
  669SOL     OW 2141   0.538   3.304   0.178
  669SOL    HW1 2142   0.610   3.246   0.202
  669SOL    HW2 2143   0.461   3.247   0.177
  670SOL     OW 2144   1.708   3.131   0.624
  670SOL    HW1 2145   1.797   3.137   0.658
  670SOL    HW2 2146   1.676   3.221   0.624
  671SOL     OW 2147   1.387   2.432   0.118
  671SOL    HW1 2148   1.469   2.414   0.165
  671SOL    HW2 2149   1.399   2.391   0.033
  672SOL     OW 2150   0.574   2.118   0.322
  672SOL    HW1 2151   0.515   2.166   0.381
  672SOL    HW2 2152   0.571   2.167   0.240
  673SOL     OW 2153   1.782   3.107   1.631
  673SOL    HW1 2154   1.687   3.117   1.631
  673SOL    HW2 2155   1.798   3.020   1.593
  674SOL     OW 2156   1.116   3.202   1.333
  674SOL    HW1 2157   1.041   3.252   1.365
  674SOL    HW2 2158   1.079   3.144   1.266
  675SOL     OW 2159   1.586   3.475   1.631
  675SOL    HW1 2160   1.671   3.432   1.640
  675SOL    HW2 2161   1.550   3.475   1.719
  676SOL     OW 2162   1.050   3.038   1.129
  676SOL    HW1 2163   1.122   2.977   1.146
  676SOL    HW2 2164   1.068   3.074   1.043
  677SOL     OW 2165   1.628   2.988   1.129
  677SOL    HW1 2166   1.710   2.940   1.113
  677SOL    HW2 2167   1.581   2.983   1.046
  678SOL     OW 2168   0.911   1.960   1.435
  678SOL    HW1 2169   0.825   2.002   1.436
  678SOL    HW2 2170   0.970   2.028   1.403
  679SOL     OW 2171   0.989   3.022   1.727
  679SOL    HW1 2172   0.897   3.031   1.753
  679SOL    HW2 2173   0.992   2.939   1.679
  680SOL     OW 2174   0.647   2.946   0.328
  680SOL    HW1 2175   0.683   3.026   0.289
  680SOL    HW2 2176   0.722   2.888   0.338
  681SOL     OW 2177   0.397   2.615   1.342
  681SOL    HW1 2178   0.483   2.653   1.324
  681SOL    HW2 2179   0.335   2.684   1.317
  682SOL     OW 2180   1.265   2.271   1.260
  682SOL    HW1 2181   1.328   2.200   1.249
  682SOL    HW2 2182   1.242   2.296   1.171
  683SOL     OW 2183   0.071   3.424   1.375
  683SOL    HW1 2184   0.163   3.413   1.350
  683SOL    HW2 2185   0.027   3.347   1.341
  684SOL     OW 2186   0.351   2.980   0.492
  684SOL    HW1 2187   0.295   3.055   0.512
  684SOL    HW2 2188   0.403   3.009   0.417
  685SOL     OW 2189   0.548   2.424   0.798
  685SOL    HW1 2190   0.471   2.421   0.854
  685SOL    HW2 2191   0.577   2.333   0.792
  686SOL     OW 2192   1.220   3.208   0.375
  686SOL    HW1 2193   1.265   3.288   0.403
  686SOL    HW2 2194   1.263   3.138   0.423
  687SOL     OW 2195   1.297   3.305   1.154
  687SOL    HW1 2196   1.362   3.342   1.215
  687SOL    HW2 2197   1.230   3.267   1.211
  688SOL     OW 2198   1.624   2.483   0.503
  688SOL    HW1 2199   1.704   2.513   0.546
  688SOL    HW2 2200   1.582   2.562   0.470
  689SOL     OW 2201   0.335   3.357   1.308
  689SOL    HW1 2202   0.358   3.415   1.380
  689SOL    HW2 2203   0.414   3.305   1.293
  690SOL     OW 2204   0.453   2.552   1.618
  690SOL    HW1 2205   0.381   2.588   1.670
  690SOL    HW2 2206   0.438   2.584   1.530
  691SOL     OW 2207   1.549   2.641   1.665
  691SOL    HW1 2208   1.487   2.709   1.692
  691SOL    HW2 2209   1.524   2.620   1.575
  692SOL     OW 2210   1.020   2.000   1.781
  692SOL    HW1 2211   1.058   2.084   1.754
  692SOL    HW2 2212   0.955   1.980   1.713
  693SOL     OW 2213   0.464   1.882   1.752
  693SOL    HW1 2214   0.540   1.922   1.794
  693SOL    HW2 2215   0.413   1.847   1.825
  694SOL     OW 2216   0.608   2.722   1.076
  694SOL    HW1 2217   0.679   2.769   1.033
  694SOL    HW2 2218   0.533   2.734   1.018
  695SOL     OW 2219   1.402   2.724   1.022
  695SOL    HW1 2220   1.407   2.635   1.058
  695SOL    HW2 2221   1.422   2.713   0.929
  696SOL     OW 2222   1.173   2.339   0.275
  696SOL    HW1 2223   1.136   2.413   0.323
  696SOL    HW2 2224   1.237   2.378   0.216
  697SOL     OW 2225   0.328   2.105   1.279
  697SOL    HW1 2226   0.269   2.130   1.351
  697SOL    HW2 2227   0.306   2.014   1.260
  698SOL     OW 2228  -0.013   3.167   1.292
  698SOL    HW1 2229   0.024   3.159   1.204
  698SOL    HW2 2230   0.045   3.115   1.347
  699SOL     OW 2231   0.747   2.484   1.118
  699SOL    HW1 2232   0.823   2.522   1.161
  699SOL    HW2 2233   0.690   2.558   1.099
  700SOL     OW 2234   1.790   2.833   1.867
  700SOL    HW1 2235   1.767   2.775   1.940
  700SOL    HW2 2236   1.716   2.893   1.860
  701SOL     OW 2237   0.295   1.940   0.610
  701SOL    HW1 2238   0.388   1.936   0.588
  701SOL    HW2 2239   0.267   1.848   0.608
  702SOL     OW 2240   1.626   2.265   0.343
  702SOL    HW1 2241   1.586   2.188   0.384
  702SOL    HW2 2242   1.620   2.334   0.409
  703SOL     OW 2243   1.023   2.611   0.946
  703SOL    HW1 2244   1.041   2.623   1.040
  703SOL    HW2 2245   0.983   2.524   0.941
  704SOL     OW 2246   0.992   3.462   1.718
  704SOL    HW1 2247   0.948   3.474   1.634
  704SOL    HW2 2248   0.934   3.404   1.768
  705SOL     OW 2249   1.845   3.370   1.610
  705SOL    HW1 2250   1.927   3.387   1.656
  705SOL    HW2 2251   1.830   3.277   1.622
  706SOL     OW 2252   0.348   2.805   1.842
  706SOL    HW1 2253   0.426   2.769   1.885
  706SOL    HW2 2254   0.379   2.885   1.800
  707SOL     OW 2255   1.581   2.054   0.115
  707SOL    HW1 2256   1.574   2.062   0.210
  707SOL    HW2 2257   1.498   2.015   0.087
  708SOL     OW 2258   1.282   2.673  -0.004
  708SOL    HW1 2259   1.311   2.605   0.058
  708SOL    HW2 2260   1.236   2.736   0.051
  709SOL     OW 2261   1.081   3.140   0.878
  709SOL    HW1 2262   1.012   3.206   0.876
  709SOL    HW2 2263   1.068   3.089   0.798
  710SOL     OW 2264   0.350   2.684   0.929
  710SOL    HW1 2265   0.276   2.681   0.868
  710SOL    HW2 2266   0.365   2.593   0.953
  711SOL     OW 2267   0.321   2.404   0.960
  711SOL    HW1 2268   0.318   2.404   1.056
  711SOL    HW2 2269   0.291   2.317   0.935
  712SOL     OW 2270   1.126   2.250   1.697
  712SOL    HW1 2271   1.221   2.249   1.697
  712SOL    HW2 2272   1.102   2.326   1.645
  713SOL     OW 2273   1.222   2.001   1.453
  713SOL    HW1 2274   1.281   2.072   1.477
  713SOL    HW2 2275   1.255   1.968   1.369
  714SOL     OW 2276   4.959   3.190   0.270
  714SOL    HW1 2277   4.885   3.138   0.241
  714SOL    HW2 2278   5.015   3.199   0.193
  715SOL     OW 2279   0.051   3.720   0.842
  715SOL    HW1 2280   0.040   3.690   0.933
  715SOL    HW2 2281   0.023   3.645   0.789
  716SOL     OW 2282   0.519   3.386   0.936
  716SOL    HW1 2283   0.500   3.473   0.899
  716SOL    HW2 2284   0.552   3.335   0.861
  717SOL     OW 2285   0.039   2.503   1.157
  717SOL    HW1 2286   0.122   2.455   1.152
  717SOL    HW2 2287   0.054   2.583   1.106
  718SOL     OW 2288   0.203   2.414   1.752
  718SOL    HW1 2289   0.271   2.370   1.702
  718SOL    HW2 2290   0.141   2.344   1.774
  719SOL     OW 2291   1.357   2.842   1.691
  719SOL    HW1 2292   1.273   2.829   1.736
  719SOL    HW2 2293   1.334   2.889   1.611
  720SOL     OW 2294   0.752   2.426   0.375
  720SOL    HW1 2295   0.718   2.361   0.437
  720SOL    HW2 2296   0.802   2.374   0.312
  721SOL     OW 2297   0.178   3.402   1.761
  721SOL    HW1 2298   0.257   3.455   1.752
  721SOL    HW2 2299   0.146   3.421   1.850
  722SOL     OW 2300   0.711   2.253   1.269
  722SOL    HW1 2301   0.805   2.236   1.270
  722SOL    HW2 2302   0.702   2.334   1.218
  723SOL     OW 2303   0.899   3.519   1.466
  723SOL    HW1 2304   0.925   3.610   1.457
  723SOL    HW2 2305   0.912   3.482   1.378
  724SOL     OW 2306   0.469   2.356   0.175
  724SOL    HW1 2307   0.440   2.338   0.265
  724SOL    HW2 2308   0.395   2.402   0.135
  725SOL     OW 2309   0.152   3.012   1.450
  725SOL    HW1 2310   0.133   2.979   1.538
  725SOL    HW2 2311   0.178   2.934   1.400
  726SOL     OW 2312   1.320   2.922   1.189
  726SOL    HW1 2313   1.390   2.986   1.172
  726SOL    HW2 2314   1.339   2.849   1.130
  727SOL     OW 2315   1.285   2.737   0.334
  727SOL    HW1 2316   1.266   2.655   0.381
  727SOL    HW2 2317   1.205   2.788   0.341
  728SOL     OW 2318   1.774   3.588   1.111
  728SOL    HW1 2319   1.773   3.594   1.206
  728SOL    HW2 2320   1.692   3.628   1.083
  729SOL     OW 2321   1.283   3.595   1.086
  729SOL    HW1 2322   1.267   3.522   1.146
  729SOL    HW2 2323   1.251   3.564   1.001
  730SOL     OW 2324   0.059   3.148   1.030
  730SOL    HW1 2325   0.043   3.126   0.939
  730SOL    HW2 2326   0.142   3.194   1.030
  731SOL     OW 2327   0.603   3.534   1.698
  731SOL    HW1 2328   0.622   3.529   1.792
  731SOL    HW2 2329   0.641   3.454   1.662
  732SOL     OW 2330   0.857   1.961   0.106
  732SOL    HW1 2331   0.943   1.989   0.135
  732SOL    HW2 2332   0.874   1.910   0.026
  733SOL     OW 2333   1.797   1.982   0.544
  733SOL    HW1 2334   1.808   2.054   0.606
  733SOL    HW2 2335   1.705   1.988   0.517
  734SOL     OW 2336   1.349   3.437   0.460
  734SOL    HW1 2337   1.407   3.415   0.532
  734SOL    HW2 2338   1.304   3.516   0.489
  735SOL     OW 2339   0.077   3.723   1.845
  735SOL    HW1 2340   0.160   3.726   1.892
  735SOL    HW2 2341   0.101   3.707   1.754
  736SOL     OW 2342   1.249   2.794   0.665
  736SOL    HW1 2343   1.168   2.840   0.685
  736SOL    HW2 2344   1.299   2.855   0.610
  737SOL     OW 2345   0.814   3.152   1.398
  737SOL    HW1 2346   0.728   3.147   1.440
  737SOL    HW2 2347   0.838   3.061   1.379
  738SOL     OW 2348   0.683   3.528   0.138
  738SOL    HW1 2349   0.655   3.574   0.059
  738SOL    HW2 2350   0.626   3.451   0.143
  739SOL     OW 2351   1.684   3.596   1.414
  739SOL    HW1 2352   1.776   3.603   1.442
  739SOL    HW2 2353   1.639   3.558   1.490
  740SOL     OW 2354   1.835   2.069   0.939
  740SOL    HW1 2355   1.928   2.078   0.956
  740SOL    HW2 2356   1.822   2.112   0.854
  741SOL     OW 2357   0.290   2.198   0.697
  741SOL    HW1 2358   0.353   2.194   0.770
  741SOL    HW2 2359   0.275   2.106   0.674
  742SOL     OW 2360   1.129   3.502   0.052
  742SOL    HW1 2361   1.038   3.491   0.025
  742SOL    HW2 2362   1.160   3.578   0.003
  743SOL     OW 2363   0.837   2.881   1.360
  743SOL    HW1 2364   0.759   2.826   1.373
  743SOL    HW2 2365   0.895   2.827   1.305
  744SOL     OW 2366   1.429   3.457   0.026
  744SOL    HW1 2367   1.490   3.530   0.017
  744SOL    HW2 2368   1.355   3.494   0.073
  745SOL     OW 2369   0.444   3.158   1.511
  745SOL    HW1 2370   0.468   3.249   1.529
  745SOL    HW2 2371   0.353   3.162   1.483
  746SOL     OW 2372   1.619   3.181   1.332
  746SOL    HW1 2373   1.715   3.186   1.338
  746SOL    HW2 2374   1.603   3.113   1.266
  747SOL     OW 2375   1.020   2.960   0.665
  747SOL    HW1 2376   0.926   2.954   0.686
  747SOL    HW2 2377   1.024   2.945   0.571
  748SOL     OW 2378   1.000   2.111   0.980
  748SOL    HW1 2379   1.011   2.027   1.025
  748SOL    HW2 2380   0.982   2.088   0.889
  749SOL     OW 2381   0.540   3.335   0.485
  749SOL    HW1 2382   0.546   3.429   0.468
  749SOL    HW2 2383   0.520   3.297   0.399
  750SOL     OW 2384   1.654   2.261   1.399
  750SOL    HW1 2385   1.723   2.249   1.465
  750SOL    HW2 2386   1.601   2.182   1.404
  751SOL     OW 2387   0.306   3.180   0.275
  751SOL    HW1 2388   0.276   3.208   0.362
  751SOL    HW2 2389   0.263   3.241   0.215
  752SOL     OW 2390   0.117   2.884   1.696
  752SOL    HW1 2391   0.180   2.862   1.764
  752SOL    HW2 2392   0.091   2.800   1.659
  753SOL     OW 2393   0.656   2.058   1.464
  753SOL    HW1 2394   0.668   2.091   1.553
  753SOL    HW2 2395   0.663   2.135   1.408
  754SOL     OW 2396   0.045   2.211  -0.002
  754SOL    HW1 2397  -0.010   2.166   0.062
  754SOL    HW2 2398   0.123   2.156  -0.009
  755SOL     OW 2399   1.468   2.762   1.385
  755SOL    HW1 2400   1.411   2.826   1.342
  755SOL    HW2 2401   1.421   2.679   1.376
  756SOL     OW 2402   0.063   2.034   0.405
  756SOL    HW1 2403   0.153   2.021   0.435
  756SOL    HW2 2404   0.018   2.073   0.481
  757SOL     OW 2405   1.165   3.229   0.106
  757SOL    HW1 2406   1.172   3.217   0.201
  757SOL    HW2 2407   1.159   3.324   0.094
  758SOL     OW 2408   0.651   2.699   1.448
  758SOL    HW1 2409   0.651   2.717   1.542
  758SOL    HW2 2410   0.688   2.611   1.441
  759SOL     OW 2411   1.532   3.688   1.037
  759SOL    HW1 2412   1.445   3.649   1.049
  759SOL    HW2 2413   1.527   3.733   0.953
  760SOL     OW 2414   0.695   2.440   1.732
  760SOL    HW1 2415   0.606   2.473   1.718
  760SOL    HW2 2416   0.737   2.449   1.646
  761SOL     OW 2417   1.517   3.131   1.579
  761SOL    HW1 2418   1.551   3.159   1.494
  761SOL    HW2 2419   1.436   3.084   1.558
  762SOL     OW 2420   0.382   3.504   1.530
  762SOL    HW1 2421   0.461   3.535   1.575
  762SOL    HW2 2422   0.318   3.574   1.545
  763SOL     OW 2423   1.730   2.699   1.224
  763SOL    HW1 2424   1.818   2.735   1.223
  763SOL    HW2 2425   1.675   2.771   1.257
  764SOL     OW 2426   1.210   2.146   0.462
  764SOL    HW1 2427   1.216   2.219   0.401
  764SOL    HW2 2428   1.295   2.102   0.455
  765SOL     OW 2429   0.537   2.657   0.648
  765SOL    HW1 2430   0.557   2.575   0.694
  765SOL    HW2 2431   0.507   2.716   0.716
  766SOL     OW 2432   1.799   2.204   1.629
  766SOL    HW1 2433   1.768   2.278   1.682
  766SOL    HW2 2434   1.751   2.128   1.663
  767SOL     OW 2435   1.696   2.848   1.523
  767SOL    HW1 2436   1.619   2.835   1.469
  767SOL    HW2 2437   1.685   2.787   1.596
  768SOL     OW 2438   0.897   3.242  -0.012
  768SOL    HW1 2439   0.982   3.222   0.026
  768SOL    HW2 2440   0.834   3.209   0.052
  769SOL     OW 2441   0.690   3.693   1.022
  769SOL    HW1 2442   0.779   3.661   1.008
  769SOL    HW2 2443   0.656   3.709   0.934
  770SOL     OW 2444   0.824   2.811   0.911
  770SOL    HW1 2445   0.900   2.752   0.916
  770SOL    HW2 2446   0.811   2.824   0.817
  771SOL     OW 2447   1.123   2.880   0.083
  771SOL    HW1 2448   1.078   2.873   0.167
  771SOL    HW2 2449   1.141   2.974   0.074
  772SOL     OW 2450   1.797   3.425   0.827
  772SOL    HW1 2451   1.780   3.465   0.912
  772SOL    HW2 2452   1.796   3.331   0.844
  773SOL     OW 2453   0.205   3.134   1.814
  773SOL    HW1 2454   0.183   3.223   1.787
  773SOL    HW2 2455   0.138   3.080   1.772
  774SOL     OW 2456   0.061   3.081   0.735
  774SOL    HW1 2457   0.129   3.029   0.777
  774SOL    HW2 2458  -0.011   3.020   0.722
  775SOL     OW 2459   0.716   3.299   1.627
  775SOL    HW1 2460   0.757   3.252   1.700
  775SOL    HW2 2461   0.781   3.294   1.556
  776SOL     OW 2462   1.849   1.983   1.202
  776SOL    HW1 2463   1.926   2.028   1.235
  776SOL    HW2 2464   1.828   2.028   1.120
  777SOL     OW 2465   0.404   2.271   0.460
  777SOL    HW1 2466   0.365   2.241   0.542
  777SOL    HW2 2467   0.396   2.366   0.463
  778SOL     OW 2468   1.673   3.301   1.052
  778SOL    HW1 2469   1.683   3.361   1.126
  778SOL    HW2 2470   1.741   3.236   1.065
  779SOL     OW 2471   0.283   2.392   1.226
  779SOL    HW1 2472   0.328   2.459   1.278
  779SOL    HW2 2473   0.314   2.309   1.261
  780SOL     OW 2474   0.841   3.483   0.672
  780SOL    HW1 2475   0.895   3.412   0.636
  780SOL    HW2 2476   0.796   3.444   0.747
  781SOL     OW 2477   1.443   2.086   1.177
  781SOL    HW1 2478   1.510   2.036   1.223
  781SOL    HW2 2479   1.472   2.087   1.086
  782SOL     OW 2480   1.040   1.857   1.070
  782SOL    HW1 2481   1.115   1.820   1.116
  782SOL    HW2 2482   0.987   1.781   1.045
  783SOL     OW 2483   0.765   3.201   0.292
  783SOL    HW1 2484   0.789   3.162   0.377
  783SOL    HW2 2485   0.801   3.289   0.295
  784SOL     OW 2486   0.611   3.443   1.239
  784SOL    HW1 2487   0.581   3.483   1.158
  784SOL    HW2 2488   0.598   3.349   1.226
  785SOL     OW 2489   1.347   1.937   0.047
  785SOL    HW1 2490   1.266   1.962   0.090
  785SOL    HW2 2491   1.350   1.841   0.056
  786SOL     OW 2492   1.288   2.300   0.717
  786SOL    HW1 2493   1.261   2.238   0.650
  786SOL    HW2 2494   1.236   2.379   0.700
  787SOL     OW 2495   1.558   2.101   0.929
  787SOL    HW1 2496   1.651   2.081   0.936
  787SOL    HW2 2497   1.552   2.156   0.851
  788SOL     OW 2498   0.060   2.886   0.268
  788SOL    HW1 2499   0.089   2.972   0.300
  788SOL    HW2 2500   0.140   2.833   0.268
  789SOL     OW 2501   0.867   3.456   0.325
  789SOL    HW1 2502   0.867   3.532   0.383
  789SOL    HW2 2503   0.817   3.485   0.248
  790SOL     OW 2504   0.196   2.489   2.021
  790SOL    HW1 2505   0.105   2.472   2.046
  790SOL    HW2 2506   0.198   2.476   1.926
  791SOL     OW 2507   0.181   2.161   2.902
  791SOL    HW1 2508   0.248   2.217   2.862
  791SOL    HW2 2509   0.159   2.098   2.834
  792SOL     OW 2510   0.043   2.250   2.504
  792SOL    HW1 2511   0.120   2.224   2.555
  792SOL    HW2 2512  -0.030   2.208   2.549
  793SOL     OW 2513   0.619   3.164   3.071
  793SOL    HW1 2514   0.658   3.095   3.017
  793SOL    HW2 2515   0.531   3.176   3.034
  794SOL     OW 2516   1.541   3.350   2.528
  794SOL    HW1 2517   1.514   3.337   2.620
  794SOL    HW2 2518   1.601   3.277   2.511
  795SOL     OW 2519   1.109   2.532   2.531
  795SOL    HW1 2520   1.026   2.489   2.549
  795SOL    HW2 2521   1.102   2.559   2.439
  796SOL     OW 2522   1.766   2.445   2.020
  796SOL    HW1 2523   1.768   2.524   2.074
  796SOL    HW2 2524   1.759   2.373   2.082
  797SOL     OW 2525   0.724   2.985   2.880
  797SOL    HW1 2526   0.750   3.073   2.852
  797SOL    HW2 2527   0.778   2.926   2.828
  798SOL     OW 2528   0.876   2.675   3.693
  798SOL    HW1 2529   0.926   2.594   3.702
  798SOL    HW2 2530   0.791   2.655   3.732
  799SOL     OW 2531   0.727   2.897   2.499
  799SOL    HW1 2532   0.770   2.870   2.581
  799SOL    HW2 2533   0.683   2.979   2.522
  800SOL     OW 2534   0.710   3.032   3.662
  800SOL    HW1 2535   0.798   3.001   3.638
  800SOL    HW2 2536   0.672   2.959   3.711
  801SOL     OW 2537   0.309   3.313   2.914
  801SOL    HW1 2538   0.248   3.251   2.953
  801SOL    HW2 2539   0.259   3.355   2.844
  802SOL     OW 2540   1.438   3.413   3.212
  802SOL    HW1 2541   1.363   3.418   3.272
  802SOL    HW2 2542   1.478   3.328   3.232
  803SOL     OW 2543   0.410   2.221   3.339
  803SOL    HW1 2544   0.406   2.305   3.293
  803SOL    HW2 2545   0.399   2.155   3.270
  804SOL     OW 2546   1.640   2.328   2.667
  804SOL    HW1 2547   1.652   2.419   2.638
  804SOL    HW2 2548   1.575   2.333   2.737
  805SOL     OW 2549   0.230   3.589   2.303
  805SOL    HW1 2550   0.244   3.507   2.349
  805SOL    HW2 2551   0.148   3.624   2.339
  806SOL     OW 2552   1.128   3.222   3.529
  806SOL    HW1 2553   1.165   3.207   3.616
  806SOL    HW2 2554   1.188   3.176   3.470
  807SOL     OW 2555   0.238   3.341   2.417
  807SOL    HW1 2556   0.198   3.272   2.471
  807SOL    HW2 2557   0.241   3.303   2.329
  808SOL     OW 2558   0.182   2.956   2.753
  808SOL    HW1 2559   0.263   2.925   2.794
  808SOL    HW2 2560   0.143   2.879   2.713
  809SOL     OW 2561   0.641   3.684   3.280
  809SOL    HW1 2562   0.641   3.725   3.194
  809SOL    HW2 2563   0.652   3.591   3.262
  810SOL     OW 2564   0.567   2.798   2.005
  810SOL    HW1 2565   0.659   2.824   2.010
  810SOL    HW2 2566   0.521   2.863   2.059
  811SOL     OW 2567   1.681   1.967   3.375
  811SOL    HW1 2568   1.761   1.919   3.393
  811SOL    HW2 2569   1.693   2.001   3.286
  812SOL     OW 2570   0.094   2.496   2.401
  812SOL    HW1 2571   0.187   2.510   2.383
  812SOL    HW2 2572   0.089   2.407   2.435
  813SOL     OW 2573   1.856   3.622   2.216
  813SOL    HW1 2574   1.788   3.619   2.283
  813SOL    HW2 2575   1.873   3.715   2.203
  814SOL     OW 2576   0.059   3.404   2.004
  814SOL    HW1 2577   0.014   3.479   2.043
  814SOL    HW2 2578  -0.011   3.340   1.988
  815SOL     OW 2579   1.657   2.925   2.259
  815SOL    HW1 2580   1.596   2.992   2.291
  815SOL    HW2 2581   1.618   2.893   2.178
  816SOL     OW 2582   0.101   2.597   3.471
  816SOL    HW1 2583   0.104   2.672   3.530
  816SOL    HW2 2584   0.010   2.594   3.440
  817SOL     OW 2585   0.653   3.160   2.566
  817SOL    HW1 2586   0.702   3.198   2.639
  817SOL    HW2 2587   0.636   3.234   2.507
  818SOL     OW 2588   1.285   3.130   3.311
  818SOL    HW1 2589   1.358   3.114   3.371
  818SOL    HW2 2590   1.326   3.163   3.231
  819SOL     OW 2591   0.828   1.858   2.406
  819SOL    HW1 2592   0.733   1.875   2.402
  819SOL    HW2 2593   0.867   1.936   2.367
  820SOL     OW 2594   0.142   2.821   3.158
  820SOL    HW1 2595   0.053   2.816   3.193
  820SOL    HW2 2596   0.137   2.776   3.074
  821SOL     OW 2597   1.539   2.854   2.023
  821SOL    HW1 2598   1.498   2.928   1.978
  821SOL    HW2 2599   1.479   2.780   2.007
  822SOL     OW 2600   1.274   3.673   3.494
  822SOL    HW1 2601   1.258   3.592   3.447
  822SOL    HW2 2602   1.195   3.686   3.547
  823SOL     OW 2603   0.356   2.135   3.624
  823SOL    HW1 2604   0.341   2.177   3.708
  823SOL    HW2 2605   0.361   2.207   3.561
  824SOL     OW 2606   1.488   3.280   2.784
  824SOL    HW1 2607   1.549   3.317   2.848
  824SOL    HW2 2608   1.464   3.195   2.819
  825SOL     OW 2609   1.650   3.591   2.393
  825SOL    HW1 2610   1.634   3.532   2.467
  825SOL    HW2 2611   1.664   3.677   2.434
  826SOL     OW 2612   0.612   2.567   2.154
  826SOL    HW1 2613   0.598   2.645   2.100
  826SOL    HW2 2614   0.563   2.498   2.109
  827SOL     OW 2615   1.324   2.177   2.803
  827SOL    HW1 2616   1.333   2.270   2.821
  827SOL    HW2 2617   1.230   2.165   2.787
  828SOL     OW 2618   1.574   3.493   2.134
  828SOL    HW1 2619   1.632   3.535   2.198
  828SOL    HW2 2620   1.507   3.450   2.187
  829SOL     OW 2621   0.809   2.501   3.300
  829SOL    HW1 2622   0.885   2.458   3.337
  829SOL    HW2 2623   0.844   2.560   3.233
  830SOL     OW 2624   1.404   2.337   3.524
  830SOL    HW1 2625   1.411   2.373   3.612
  830SOL    HW2 2626   1.442   2.249   3.532
  831SOL     OW 2627   0.990   2.779   3.460
  831SOL    HW1 2628   0.937   2.733   3.525
  831SOL    HW2 2629   0.930   2.798   3.389
  832SOL     OW 2630   0.961   2.287   3.085
  832SOL    HW1 2631   0.923   2.223   3.146
  832SOL    HW2 2632   1.055   2.269   3.086
  833SOL     OW 2633   1.049   2.576   2.266
  833SOL    HW1 2634   1.029   2.654   2.215
  833SOL    HW2 2635   0.972   2.520   2.255
  834SOL     OW 2636   0.084   2.720   2.660
  834SOL    HW1 2637   0.161   2.665   2.644
  834SOL    HW2 2638   0.016   2.683   2.605
  835SOL     OW 2639   0.149   3.735   3.404
  835SOL    HW1 2640   0.121   3.708   3.491
  835SOL    HW2 2641   0.159   3.830   3.410
  836SOL     OW 2642   0.890   2.204   2.060
  836SOL    HW1 2643   0.931   2.143   2.121
  836SOL    HW2 2644   0.884   2.154   1.978
  837SOL     OW 2645   1.687   2.404   3.721
  837SOL    HW1 2646   1.596   2.415   3.747
  837SOL    HW2 2647   1.699   2.466   3.649
  838SOL     OW 2648   1.362   2.996   2.394
  838SOL    HW1 2649   1.316   3.066   2.347
  838SOL    HW2 2650   1.358   2.921   2.334
  839SOL     OW 2651   0.538   2.080   2.700
  839SOL    HW1 2652   0.583   2.130   2.769
  839SOL    HW2 2653   0.584   1.996   2.697
  840SOL     OW 2654   1.045   3.298   2.420
  840SOL    HW1 2655   1.103   3.336   2.486
  840SOL    HW2 2656   0.959   3.333   2.441
  841SOL     OW 2657   0.342   3.656   2.708
  841SOL    HW1 2658   0.406   3.588   2.730
  841SOL    HW2 2659   0.392   3.738   2.713
  842SOL     OW 2660   1.730   2.908   2.825
  842SOL    HW1 2661   1.813   2.888   2.782
  842SOL    HW2 2662   1.665   2.904   2.755
  843SOL     OW 2663   1.208   3.437   3.361
  843SOL    HW1 2664   1.184   3.367   3.422
  843SOL    HW2 2665   1.128   3.455   3.312
  844SOL     OW 2666   0.266   2.780   2.117
  844SOL    HW1 2667   0.246   2.687   2.129
  844SOL    HW2 2668   0.281   2.789   2.023
  845SOL     OW 2669   1.460   2.567   2.542
  845SOL    HW1 2670   1.419   2.647   2.575
  845SOL    HW2 2671   1.404   2.540   2.468
  846SOL     OW 2672   0.466   3.162   3.629
  846SOL    HW1 2673   0.551   3.123   3.608
  846SOL    HW2 2674   0.464   3.166   3.725
  847SOL     OW 2675   1.106   3.655   2.098
  847SOL    HW1 2676   1.192   3.695   2.090
  847SOL    HW2 2677   1.044   3.726   2.081
  848SOL     OW 2678   0.167   2.075   3.358
  848SOL    HW1 2679   0.226   2.132   3.407
  848SOL    HW2 2680   0.203   2.074   3.269
  849SOL     OW 2681   1.639   3.229   1.937
  849SOL    HW1 2682   1.580   3.160   1.907
  849SOL    HW2 2683   1.593   3.310   1.914
  850SOL     OW 2684   0.476   3.552   2.181
  850SOL    HW1 2685   0.392   3.561   2.225
  850SOL    HW2 2686   0.460   3.487   2.112
  851SOL     OW 2687   1.382   1.959   2.281
  851SOL    HW1 2688   1.456   2.015   2.261
  851SOL    HW2 2689   1.365   1.912   2.199
  852SOL     OW 2690   0.228   3.704   3.144
  852SOL    HW1 2691   0.296   3.636   3.142
  852SOL    HW2 2692   0.200   3.707   3.235
  853SOL     OW 2693   0.854   3.541   2.774
  853SOL    HW1 2694   0.899   3.514   2.854
  853SOL    HW2 2695   0.915   3.600   2.730
  854SOL     OW 2696   0.384   2.537   2.354
  854SOL    HW1 2697   0.431   2.583   2.424
  854SOL    HW2 2698   0.437   2.550   2.276
  855SOL     OW 2699   1.507   2.088   3.570
  855SOL    HW1 2700   1.457   2.027   3.624
  855SOL    HW2 2701   1.547   2.032   3.503
  856SOL     OW 2702   0.643   1.968   1.944
  856SOL    HW1 2703   0.601   2.009   2.020
  856SOL    HW2 2704   0.657   1.877   1.971
  857SOL     OW 2705   0.777   2.124   3.627
  857SOL    HW1 2706   0.766   2.219   3.625
  857SOL    HW2 2707   0.757   2.095   3.538
  858SOL     OW 2708   0.901   3.400   3.032
  858SOL    HW1 2709   0.958   3.339   3.079
  858SOL    HW2 2710   0.858   3.450   3.100
  859SOL     OW 2711   1.352   2.411   3.263
  859SOL    HW1 2712   1.381   2.379   3.348
  859SOL    HW2 2713   1.395   2.496   3.253
  860SOL     OW 2714   0.809   3.236   2.813
  860SOL    HW1 2715   0.824   3.295   2.887
  860SOL    HW2 2716   0.896   3.223   2.775
  861SOL     OW 2717   0.933   2.391   2.776
  861SOL    HW1 2718   0.959   2.304   2.806
  861SOL    HW2 2719   0.906   2.378   2.685
  862SOL     OW 2720   0.561   1.918   2.376
  862SOL    HW1 2721   0.492   1.944   2.438
  862SOL    HW2 2722   0.521   1.849   2.324
  863SOL     OW 2723   1.440   3.049   1.858
  863SOL    HW1 2724   1.387   3.121   1.825
  863SOL    HW2 2725   1.427   2.978   1.795
  864SOL     OW 2726   0.307   1.848   1.992
  864SOL    HW1 2727   0.362   1.798   2.053
  864SOL    HW2 2728   0.252   1.902   2.048
  865SOL     OW 2729   0.929   2.101   2.331
  865SOL    HW1 2730   1.023   2.121   2.334
  865SOL    HW2 2731   0.886   2.186   2.343
  866SOL     OW 2732   1.098   2.509   3.301
  866SOL    HW1 2733   1.123   2.558   3.379
  866SOL    HW2 2734   1.175   2.457   3.278
  867SOL     OW 2735   1.181   3.428   2.633
  867SOL    HW1 2736   1.194   3.460   2.722
  867SOL    HW2 2737   1.204   3.502   2.577
  868SOL     OW 2738   0.435   2.906   2.602
  868SOL    HW1 2739   0.433   2.996   2.633
  868SOL    HW2 2740   0.417   2.912   2.508
  869SOL     OW 2741   1.221   3.658   2.472
  869SOL    HW1 2742   1.287   3.718   2.436
  869SOL    HW2 2743   1.182   3.617   2.395
  870SOL     OW 2744   1.082   2.486   1.906
  870SOL    HW1 2745   1.105   2.433   1.983
  870SOL    HW2 2746   1.046   2.424   1.843
  871SOL     OW 2747   0.064   2.411   3.217
  871SOL    HW1 2748   0.159   2.413   3.215
  871SOL    HW2 2749   0.040   2.469   3.289
  872SOL     OW 2750   0.610   2.041   2.989
  872SOL    HW1 2751   0.647   2.040   3.077
  872SOL    HW2 2752   0.516   2.054   3.002
  873SOL     OW 2753   0.856   2.394   2.510
  873SOL    HW1 2754   0.768   2.386   2.544
  873SOL    HW2 2755   0.845   2.403   2.415
  874SOL     OW 2756   1.030   1.903   2.598
  874SOL    HW1 2757   0.962   1.898   2.530
  874SOL    HW2 2758   1.109   1.872   2.554
  875SOL     OW 2759   1.452   2.991   2.706
  875SOL    HW1 2760   1.434   3.063   2.645
  875SOL    HW2 2761   1.399   2.918   2.673
  876SOL     OW 2762   1.465   2.436   2.864
  876SOL    HW1 2763   1.531   2.449   2.932
  876SOL    HW2 2764   1.416   2.518   2.862
  877SOL     OW 2765   1.814   2.682   2.154
  877SOL    HW1 2766   1.908   2.663   2.154
  877SOL    HW2 2767   1.808   2.774   2.181
  878SOL     OW 2768   0.489   3.195   2.056
  878SOL    HW1 2769   0.580   3.218   2.078
  878SOL    HW2 2770   0.494   3.167   1.965
  879SOL     OW 2771   1.396   2.407   1.957
  879SOL    HW1 2772   1.327   2.392   2.022
  879SOL    HW2 2773   1.403   2.503   1.952
  880SOL     OW 2774   0.498   2.108   2.177
  880SOL    HW1 2775   0.478   2.175   2.243
  880SOL    HW2 2776   0.540   2.037   2.227
  881SOL     OW 2777   1.745   3.072   3.465
  881SOL    HW1 2778   1.782   3.144   3.413
  881SOL    HW2 2779   1.820   3.035   3.511
  882SOL     OW 2780   1.033   3.231   3.203
  882SOL    HW1 2781   1.110   3.186   3.239
  882SOL    HW2 2782   0.959   3.193   3.250
  883SOL     OW 2783   1.599   3.486   3.550
  883SOL    HW1 2784   1.688   3.458   3.528
  883SOL    HW2 2785   1.566   3.525   3.469
  884SOL     OW 2786   1.174   3.042   2.963
  884SOL    HW1 2787   1.205   3.127   2.994
  884SOL    HW2 2788   1.117   3.063   2.888
  885SOL     OW 2789   1.553   3.047   2.977
  885SOL    HW1 2790   1.473   3.002   2.948
  885SOL    HW2 2791   1.622   3.009   2.922
  886SOL     OW 2792   0.920   1.952   3.252
  886SOL    HW1 2793   0.842   1.990   3.291
  886SOL    HW2 2794   0.930   1.867   3.295
  887SOL     OW 2795   0.981   3.000   3.614
  887SOL    HW1 2796   1.018   3.075   3.567
  887SOL    HW2 2797   0.997   2.926   3.556
  888SOL     OW 2798   0.714   2.918   2.229
  888SOL    HW1 2799   0.733   2.896   2.320
  888SOL    HW2 2800   0.630   2.965   2.233
  889SOL     OW 2801   0.389   2.687   3.109
  889SOL    HW1 2802   0.469   2.708   3.158
  889SOL    HW2 2803   0.325   2.751   3.138
  890SOL     OW 2804   1.229   2.209   3.125
  890SOL    HW1 2805   1.282   2.280   3.162
  890SOL    HW2 2806   1.293   2.147   3.091
  891SOL     OW 2807   0.094   3.427   3.205
  891SOL    HW1 2808   0.043   3.421   3.286
  891SOL    HW2 2809   0.044   3.486   3.149
  892SOL     OW 2810   0.359   2.940   2.335
  892SOL    HW1 2811   0.287   3.002   2.341
  892SOL    HW2 2812   0.332   2.879   2.267
  893SOL     OW 2813   0.604   2.391   2.626
  893SOL    HW1 2814   0.581   2.482   2.608
  893SOL    HW2 2815   0.546   2.340   2.570
  894SOL     OW 2816   1.237   3.213   2.247
  894SOL    HW1 2817   1.293   3.290   2.257
  894SOL    HW2 2818   1.159   3.234   2.299
  895SOL     OW 2819   1.291   3.284   3.018
  895SOL    HW1 2820   1.343   3.339   3.076
  895SOL    HW2 2821   1.274   3.339   2.941
  896SOL     OW 2822   1.497   2.511   2.271
  896SOL    HW1 2823   1.547   2.533   2.350
  896SOL    HW2 2824   1.530   2.425   2.246
  897SOL     OW 2825   0.364   3.395   3.170
  897SOL    HW1 2826   0.276   3.413   3.202
  897SOL    HW2 2827   0.352   3.373   3.077
  898SOL     OW 2828   0.385   2.582   3.440
  898SOL    HW1 2829   0.291   2.589   3.461
  898SOL    HW2 2830   0.388   2.524   3.365
  899SOL     OW 2831   1.628   2.605   3.535
  899SOL    HW1 2832   1.670   2.670   3.479
  899SOL    HW2 2833   1.556   2.570   3.483
  900SOL     OW 2834   1.023   1.990   3.655
  900SOL    HW1 2835   1.074   2.071   3.649
  900SOL    HW2 2836   0.932   2.019   3.649
  901SOL     OW 2837   0.504   1.915   3.571
  901SOL    HW1 2838   0.557   1.909   3.651
  901SOL    HW2 2839   0.448   1.992   3.586
  902SOL     OW 2840   0.590   2.710   2.847
  902SOL    HW1 2841   0.617   2.793   2.886
  902SOL    HW2 2842   0.639   2.644   2.895
  903SOL     OW 2843   1.333   2.687   2.881
  903SOL    HW1 2844   1.336   2.744   2.958
  903SOL    HW2 2845   1.340   2.747   2.807
  904SOL     OW 2846   1.193   2.374   2.135
  904SOL    HW1 2847   1.161   2.446   2.189
  904SOL    HW2 2848   1.191   2.297   2.192
  905SOL     OW 2849   0.322   2.066   3.120
  905SOL    HW1 2850   0.267   2.099   3.049
  905SOL    HW2 2851   0.305   1.972   3.122
  906SOL     OW 2852   0.124   3.178   3.099
  906SOL    HW1 2853   0.110   3.262   3.142
  906SOL    HW2 2854   0.116   3.113   3.170
  907SOL     OW 2855   0.750   2.509   2.954
  907SOL    HW1 2856   0.818   2.523   3.020
  907SOL    HW2 2857   0.794   2.460   2.884
  908SOL     OW 2858   1.764   2.785   3.711
  908SOL    HW1 2859   1.729   2.794   3.800
  908SOL    HW2 2860   1.705   2.723   3.668
  909SOL     OW 2861   0.283   1.937   2.486
  909SOL    HW1 2862   0.215   1.886   2.529
  909SOL    HW2 2863   0.271   1.919   2.392
  910SOL     OW 2864   1.630   2.258   2.239
  910SOL    HW1 2865   1.653   2.180   2.290
  910SOL    HW2 2866   1.600   2.224   2.155
  911SOL     OW 2867   1.049   2.637   2.853
  911SOL    HW1 2868   1.144   2.633   2.849
  911SOL    HW2 2869   1.020   2.550   2.823
  912SOL     OW 2870   0.988   3.465   3.594
  912SOL    HW1 2871   1.001   3.374   3.567
  912SOL    HW2 2872   0.895   3.470   3.618
  913SOL     OW 2873   1.858   3.426   3.488
  913SOL    HW1 2874   1.940   3.389   3.521
  913SOL    HW2 2875   1.884   3.508   3.447
  914SOL     OW 2876   0.367   2.783   3.653
  914SOL    HW1 2877   0.449   2.800   3.700
  914SOL    HW2 2878   0.389   2.711   3.594
  915SOL     OW 2879   1.515   2.165   2.010
  915SOL    HW1 2880   1.438   2.107   2.006
  915SOL    HW2 2881   1.481   2.251   1.985
  916SOL     OW 2882   1.290   2.669   1.952
  916SOL    HW1 2883   1.245   2.752   1.941
  916SOL    HW2 2884   1.224   2.603   1.929
  917SOL     OW 2885   1.065   3.183   2.728
  917SOL    HW1 2886   1.107   3.258   2.687
  917SOL    HW2 2887   1.068   3.114   2.661
  918SOL     OW 2888   0.337   2.612   2.794
  918SOL    HW1 2889   0.422   2.652   2.813
  918SOL    HW2 2890   0.280   2.643   2.864
  919SOL     OW 2891   0.390   2.350   2.859
  919SOL    HW1 2892   0.480   2.355   2.830
  919SOL    HW2 2893   0.351   2.434   2.833
  920SOL     OW 2894   1.140   2.246   3.590
  920SOL    HW1 2895   1.228   2.279   3.575
  920SOL    HW2 2896   1.116   2.202   3.508
  921SOL     OW 2897   1.107   2.125   3.354
  921SOL    HW1 2898   1.049   2.055   3.326
  921SOL    HW2 2899   1.156   2.150   3.276
  922SOL     OW 2900   4.885   3.178   1.982
  922SOL    HW1 2901   4.896   3.192   2.077
  922SOL    HW2 2902   4.908   3.086   1.969
  923SOL     OW 2903   0.072   3.673   2.782
  923SOL    HW1 2904   0.166   3.680   2.764
  923SOL    HW2 2905   0.043   3.599   2.728
  924SOL     OW 2906   0.524   3.463   2.796
  924SOL    HW1 2907   0.612   3.429   2.808
  924SOL    HW2 2908   0.467   3.400   2.840
  925SOL     OW 2909   0.953   2.649   3.113
  925SOL    HW1 2910   1.020   2.607   3.166
  925SOL    HW2 2911   0.992   2.657   3.026
  926SOL     OW 2912   0.045   2.411   2.947
  926SOL    HW1 2913   0.036   2.408   3.043
  926SOL    HW2 2914   0.071   2.322   2.923
  927SOL     OW 2915   0.162   2.353   3.589
  927SOL    HW1 2916   0.178   2.397   3.673
  927SOL    HW2 2917   0.134   2.423   3.530
  928SOL     OW 2918   1.393   2.817   3.497
  928SOL    HW1 2919   1.369   2.764   3.573
  928SOL    HW2 2920   1.401   2.753   3.426
  929SOL     OW 2921   0.830   2.413   2.234
  929SOL    HW1 2922   0.755   2.465   2.205
  929SOL    HW2 2923   0.843   2.349   2.164
  930SOL     OW 2924   1.654   2.478   3.075
  930SOL    HW1 2925   1.745   2.474   3.105
  930SOL    HW2 2926   1.610   2.410   3.124
  931SOL     OW 2927   0.296   3.409   3.617
  931SOL    HW1 2928   0.375   3.359   3.639
  931SOL    HW2 2929   0.322   3.462   3.541
  932SOL     OW 2930   0.671   2.276   3.177
  932SOL    HW1 2931   0.716   2.357   3.199
  932SOL    HW2 2932   0.670   2.274   3.081
  933SOL     OW 2933   0.942   3.523   3.314
  933SOL    HW1 2934   0.939   3.517   3.409
  933SOL    HW2 2935   0.930   3.616   3.295
  934SOL     OW 2936   0.456   2.381   2.049
  934SOL    HW1 2937   0.363   2.400   2.040
  934SOL    HW2 2938   0.461   2.286   2.061
  935SOL     OW 2939   0.149   2.991   3.376
  935SOL    HW1 2940   0.219   3.056   3.374
  935SOL    HW2 2941   0.169   2.932   3.304
  936SOL     OW 2942   1.330   2.873   3.106
  936SOL    HW1 2943   1.351   2.929   3.181
  936SOL    HW2 2944   1.264   2.922   3.057
  937SOL     OW 2945   1.345   2.760   2.250
  937SOL    HW1 2946   1.398   2.680   2.249
  937SOL    HW2 2947   1.294   2.755   2.169
  938SOL     OW 2948   1.780   3.677   2.986
  938SOL    HW1 2949   1.814   3.608   3.043
  938SOL    HW2 2950   1.692   3.647   2.963
  939SOL     OW 2951   1.223   3.583   2.929
  939SOL    HW1 2952   1.154   3.549   2.987
  939SOL    HW2 2953   1.224   3.677   2.946
  940SOL     OW 2954   0.033   3.164   2.847
  940SOL    HW1 2955   0.055   3.168   2.940
  940SOL    HW2 2956   0.083   3.089   2.814
  941SOL     OW 2957   0.710   3.552   3.618
  941SOL    HW1 2958   0.653   3.618   3.579
  941SOL    HW2 2959   0.703   3.477   3.559
  942SOL     OW 2960   1.682   2.022   2.388
  942SOL    HW1 2961   1.758   2.046   2.442
  942SOL    HW2 2962   1.612   2.007   2.452
  943SOL     OW 2963   1.385   3.439   2.327
  943SOL    HW1 2964   1.432   3.400   2.401
  943SOL    HW2 2965   1.403   3.533   2.335
  944SOL     OW 2966   0.127   3.626   3.661
  944SOL    HW1 2967   0.177   3.675   3.727
  944SOL    HW2 2968   0.180   3.549   3.643
  945SOL     OW 2969   1.303   2.795   2.591
  945SOL    HW1 2970   1.214   2.760   2.582
  945SOL    HW2 2971   1.312   2.857   2.519
  946SOL     OW 2972   0.800   3.115   3.300
  946SOL    HW1 2973   0.735   3.135   3.232
  946SOL    HW2 2974   0.814   3.021   3.292
  947SOL     OW 2975   0.675   3.496   1.955
  947SOL    HW1 2976   0.694   3.534   2.041
  947SOL    HW2 2977   0.739   3.426   1.944
  948SOL     OW 2978   1.659   3.560   3.253
  948SOL    HW1 2979   1.637   3.651   3.271
  948SOL    HW2 2980   1.576   3.519   3.231
  949SOL     OW 2981   1.794   2.041   2.807
  949SOL    HW1 2982   1.856   2.095   2.856
  949SOL    HW2 2983   1.834   2.030   2.720
  950SOL     OW 2984   0.290   2.176   2.608
  950SOL    HW1 2985   0.369   2.171   2.662
  950SOL    HW2 2986   0.284   2.091   2.565
  951SOL     OW 2987   1.216   3.464   1.924
  951SOL    HW1 2988   1.170   3.517   1.989
  951SOL    HW2 2989   1.176   3.490   1.840
  952SOL     OW 2990   0.821   2.848   3.252
  952SOL    HW1 2991   0.734   2.807   3.255
  952SOL    HW2 2992   0.869   2.798   3.187
  953SOL     OW 2993   0.935   2.781   2.106
  953SOL    HW1 2994   0.863   2.828   2.148
  953SOL    HW2 2995   0.897   2.747   2.025
  954SOL     OW 2996   1.487   3.459   1.883
  954SOL    HW1 2997   1.522   3.484   1.969
  954SOL    HW2 2998   1.392   3.456   1.896
  955SOL     OW 2999   0.348   3.173   3.365
  955SOL    HW1 3000   0.399   3.180   3.446
  955SOL    HW2 3001   0.373   3.249   3.314
  956SOL     OW 3002   1.564   3.173   3.211
  956SOL    HW1 3003   1.658   3.173   3.230
  956SOL    HW2 3004   1.557   3.126   3.128
  957SOL     OW 3005   1.041   2.975   2.552
  957SOL    HW1 3006   0.976   2.915   2.588
  957SOL    HW2 3007   1.004   3.003   2.468
  958SOL     OW 3008   1.035   2.104   2.796
  958SOL    HW1 3009   1.020   2.049   2.873
  958SOL    HW2 3010   1.027   2.045   2.722
  959SOL     OW 3011   0.590   3.376   2.379
  959SOL    HW1 3012   0.577   3.457   2.330
  959SOL    HW2 3013   0.524   3.316   2.343
  960SOL     OW 3014   1.652   2.270   3.259
  960SOL    HW1 3015   1.742   2.300   3.242
  960SOL    HW2 3016   1.653   2.242   3.351
  961SOL     OW 3017   0.241   3.252   2.165
  961SOL    HW1 3018   0.323   3.220   2.126
  961SOL    HW2 3019   0.193   3.291   2.093
  962SOL     OW 3020   0.100   2.837   3.603
  962SOL    HW1 3021   0.188   2.830   3.639
  962SOL    HW2 3022   0.108   2.899   3.530
  963SOL     OW 3023   0.700   2.077   3.367
  963SOL    HW1 3024   0.617   2.036   3.390
  963SOL    HW2 3025   0.674   2.152   3.312
  964SOL     OW 3026   0.041   2.218   1.857
  964SOL    HW1 3027   0.049   2.222   1.953
  964SOL    HW2 3028   0.072   2.130   1.835
  965SOL     OW 3029   1.455   2.668   3.252
  965SOL    HW1 3030   1.404   2.729   3.200
  965SOL    HW2 3031   1.543   2.672   3.215
  966SOL     OW 3032   0.094   1.997   2.211
  966SOL    HW1 3033   0.141   2.060   2.156
  966SOL    HW2 3034   0.053   2.051   2.279
  967SOL     OW 3035   1.116   3.211   1.985
  967SOL    HW1 3036   1.159   3.190   2.068
  967SOL    HW2 3037   1.165   3.286   1.951
  968SOL     OW 3038   0.602   2.688   3.291
  968SOL    HW1 3039   0.539   2.673   3.362
  968SOL    HW2 3040   0.662   2.614   3.297
  969SOL     OW 3041   1.516   3.657   2.875
  969SOL    HW1 3042   1.436   3.607   2.887
  969SOL    HW2 3043   1.503   3.704   2.793
  970SOL     OW 3044   0.700   2.383   3.572
  970SOL    HW1 3045   0.610   2.410   3.592
  970SOL    HW2 3046   0.716   2.415   3.484
  971SOL     OW 3047   1.470   3.072   3.508
  971SOL    HW1 3048   1.564   3.078   3.488
  971SOL    HW2 3049   1.450   2.979   3.498
  972SOL     OW 3050   0.376   3.583   3.429
  972SOL    HW1 3051   0.445   3.643   3.457
  972SOL    HW2 3052   0.300   3.639   3.413
  973SOL     OW 3053   1.692   2.763   3.098
  973SOL    HW1 3054   1.693   2.676   3.059
  973SOL    HW2 3055   1.706   2.823   3.025
  974SOL     OW 3056   1.195   2.166   2.318
  974SOL    HW1 3057   1.233   2.213   2.391
  974SOL    HW2 3058   1.248   2.087   2.309
  975SOL     OW 3059   0.554   2.653   2.540
  975SOL    HW1 3060   0.508   2.706   2.605
  975SOL    HW2 3061   0.613   2.714   2.497
  976SOL     OW 3062   1.799   2.185   3.501
  976SOL    HW1 3063   1.758   2.211   3.583
  976SOL    HW2 3064   1.756   2.102   3.478
  977SOL     OW 3065   1.744   2.786   3.370
  977SOL    HW1 3066   1.744   2.879   3.394
  977SOL    HW2 3067   1.736   2.786   3.274
  978SOL     OW 3068   0.868   3.272   1.879
  978SOL    HW1 3069   0.957   3.243   1.899
  978SOL    HW2 3070   0.816   3.241   1.952
  979SOL     OW 3071   0.694   3.745   2.873
  979SOL    HW1 3072   0.722   3.665   2.829
  979SOL    HW2 3073   0.627   3.783   2.815
  980SOL     OW 3074   0.869   2.802   2.718
  980SOL    HW1 3075   0.944   2.770   2.768
  980SOL    HW2 3076   0.810   2.726   2.713
  981SOL     OW 3077   1.135   2.884   1.930
  981SOL    HW1 3078   1.069   2.863   1.997
  981SOL    HW2 3079   1.099   2.960   1.884
  982SOL     OW 3080   1.820   3.409   2.723
  982SOL    HW1 3081   1.755   3.411   2.793
  982SOL    HW2 3082   1.872   3.331   2.742
  983SOL     OW 3083   0.166   3.168   3.660
  983SOL    HW1 3084   0.196   3.257   3.641
  983SOL    HW2 3085   0.238   3.112   3.632
  984SOL     OW 3086   0.112   3.138   2.550
  984SOL    HW1 3087   0.146   3.075   2.614
  984SOL    HW2 3088   0.017   3.135   2.561
  985SOL     OW 3089   0.726   3.334   3.459
  985SOL    HW1 3090   0.756   3.246   3.437
  985SOL    HW2 3091   0.700   3.372   3.375
  986SOL     OW 3092   1.804   1.990   3.127
  986SOL    HW1 3093   1.892   2.017   3.154
  986SOL    HW2 3094   1.813   1.968   3.034
  987SOL     OW 3095   0.427   2.271   2.385
  987SOL    HW1 3096   0.368   2.245   2.456
  987SOL    HW2 3097   0.406   2.363   2.369
  988SOL     OW 3098   1.681   3.355   2.960
  988SOL    HW1 3099   1.660   3.363   3.053
  988SOL    HW2 3100   1.749   3.288   2.956
  989SOL     OW 3101   0.342   2.428   3.164
  989SOL    HW1 3102   0.357   2.519   3.137
  989SOL    HW2 3103   0.349   2.378   3.083
  990SOL     OW 3104   0.827   3.416   2.527
  990SOL    HW1 3105   0.823   3.458   2.613
  990SOL    HW2 3106   0.739   3.428   2.490
  991SOL     OW 3107   1.419   2.034   3.012
  991SOL    HW1 3108   1.511   2.059   3.026
  991SOL    HW2 3109   1.394   2.078   2.931
  992SOL     OW 3110   1.029   1.855   3.011
  992SOL    HW1 3111   0.996   1.899   3.089
  992SOL    HW2 3112   0.963   1.788   2.991
  993SOL     OW 3113   0.752   3.252   2.130
  993SOL    HW1 3114   0.792   3.190   2.191
  993SOL    HW2 3115   0.782   3.338   2.159
  994SOL     OW 3116   0.632   3.409   3.209
  994SOL    HW1 3117   0.537   3.419   3.208
  994SOL    HW2 3118   0.649   3.331   3.156
  995SOL     OW 3119   1.367   1.899   1.992
  995SOL    HW1 3120   1.413   1.900   1.909
  995SOL    HW2 3121   1.305   1.826   1.985
  996SOL     OW 3122   1.289   2.322   2.519
  996SOL    HW1 3123   1.367   2.348   2.569
  996SOL    HW2 3124   1.226   2.392   2.534
  997SOL     OW 3125   1.558   2.007   2.671
  997SOL    HW1 3126   1.636   2.025   2.725
  997SOL    HW2 3127   1.500   2.082   2.687
  998SOL     OW 3128   0.047   2.951   2.166
  998SOL    HW1 3129   0.123   2.895   2.152
  998SOL    HW2 3130  -0.020   2.916   2.107
  999SOL     OW 3131   0.853   3.512   2.184
  999SOL    HW1 3132   0.835   3.572   2.255
  999SOL    HW2 3133   0.943   3.533   2.157
 1000SOL     OW 3134   0.194   2.465   3.828
 1000SOL    HW1 3135   0.129   2.442   3.894
 1000SOL    HW2 3136   0.278   2.444   3.869
 1001SOL     OW 3137   0.222   2.096   4.650
 1001SOL    HW1 3138   0.243   2.177   4.697
 1001SOL    HW2 3139   0.303   2.045   4.654
 1002SOL     OW 3140   4.961   2.207   4.360
 1002SOL    HW1 3141   5.056   2.217   4.371
 1002SOL    HW2 3142   4.925   2.291   4.388
 1003SOL     OW 3143   0.537   3.162   4.866
 1003SOL    HW1 3144   0.562   3.070   4.870
 1003SOL    HW2 3145   0.616   3.207   4.836
 1004SOL     OW 3146   1.551   3.383   4.409
 1004SOL    HW1 3147   1.536   3.373   4.503
 1004SOL    HW2 3148   1.588   3.300   4.381
 1005SOL     OW 3149   1.058   2.580   4.402
 1005SOL    HW1 3150   1.049   2.577   4.498
 1005SOL    HW2 3151   1.123   2.649   4.387
 1006SOL     OW 3152   1.796   2.448   3.974
 1006SOL    HW1 3153   1.745   2.386   4.026
 1006SOL    HW2 3154   1.759   2.441   3.886
 1007SOL     OW 3155   0.717   2.969   4.725
 1007SOL    HW1 3156   0.744   3.058   4.702
 1007SOL    HW2 3157   0.775   2.912   4.673
 1008SOL     OW 3158   0.688   2.867   4.362
 1008SOL    HW1 3159   0.762   2.874   4.422
 1008SOL    HW2 3160   0.615   2.907   4.409
 1009SOL     OW 3161   0.304   3.285   4.789
 1009SOL    HW1 3162   0.371   3.227   4.825
 1009SOL    HW2 3163   0.353   3.349   4.737
 1010SOL     OW 3164   1.600   2.325   4.427
 1010SOL    HW1 3165   1.608   2.376   4.507
 1010SOL    HW2 3166   1.688   2.296   4.407
 1011SOL     OW 3167   0.215   3.604   4.132
 1011SOL    HW1 3168   0.203   3.526   4.185
 1011SOL    HW2 3169   0.225   3.675   4.195
 1012SOL     OW 3170   0.228   3.360   4.265
 1012SOL    HW1 3171   0.190   3.296   4.325
 1012SOL    HW2 3172   0.246   3.310   4.185
 1013SOL     OW 3173   0.222   2.948   4.595
 1013SOL    HW1 3174   0.311   2.964   4.563
 1013SOL    HW2 3175   0.196   2.866   4.553
 1014SOL     OW 3176   0.602   2.832   3.824
 1014SOL    HW1 3177   0.675   2.818   3.883
 1014SOL    HW2 3178   0.525   2.833   3.880
 1015SOL     OW 3179   0.114   2.501   4.326
 1015SOL    HW1 3180   0.151   2.418   4.356
 1015SOL    HW2 3181   0.173   2.531   4.258
 1016SOL     OW 3182   1.856   3.604   4.029
 1016SOL    HW1 3183   1.923   3.591   4.096
 1016SOL    HW2 3184   1.885   3.550   3.955
 1017SOL     OW 3185  -0.022   3.491   3.848
 1017SOL    HW1 3186   0.043   3.502   3.917
 1017SOL    HW2 3187   0.016   3.535   3.772
 1018SOL     OW 3188   1.692   2.796   4.301
 1018SOL    HW1 3189   1.685   2.835   4.388
 1018SOL    HW2 3190   1.632   2.722   4.302
 1019SOL     OW 3191   1.657   3.020   4.091
 1019SOL    HW1 3192   1.574   3.068   4.093
 1019SOL    HW2 3193   1.631   2.928   4.087
 1020SOL     OW 3194   0.583   3.247   4.464
 1020SOL    HW1 3195   0.669   3.235   4.504
 1020SOL    HW2 3196   0.541   3.314   4.517
 1021SOL     OW 3197   0.841   1.909   4.235
 1021SOL    HW1 3198   0.879   1.888   4.320
 1021SOL    HW2 3199   0.904   1.877   4.171
 1022SOL     OW 3200   0.218   2.878  -0.013
 1022SOL    HW1 3201   0.250   2.899   0.074
 1022SOL    HW2 3202   0.272   2.804  -0.042
 1023SOL     OW 3203   1.502   2.821   3.928
 1023SOL    HW1 3204   1.428   2.808   3.988
 1023SOL    HW2 3205   1.481   2.902   3.882
 1024SOL     OW 3206   1.509   3.264   4.661
 1024SOL    HW1 3207   1.439   3.291   4.721
 1024SOL    HW2 3208   1.476   3.184   4.621
 1025SOL     OW 3209   1.656   3.660   4.320
 1025SOL    HW1 3210   1.628   3.633   4.232
 1025SOL    HW2 3211   1.638   3.584   4.375
 1026SOL     OW 3212   0.609   2.578   4.024
 1026SOL    HW1 3213   0.681   2.639   4.044
 1026SOL    HW2 3214   0.531   2.620   4.061
 1027SOL     OW 3215   1.226   2.209   4.686
 1027SOL    HW1 3216   1.288   2.150   4.728
 1027SOL    HW2 3217   1.263   2.224   4.599
 1028SOL     OW 3218   1.587   3.545   4.058
 1028SOL    HW1 3219   1.680   3.565   4.046
 1028SOL    HW2 3220   1.554   3.532   3.970
 1029SOL     OW 3221   1.079   2.578   4.123
 1029SOL    HW1 3222   1.071   2.567   4.217
 1029SOL    HW2 3223   0.989   2.589   4.092
 1030SOL     OW 3224   0.141   2.709   4.498
 1030SOL    HW1 3225   0.070   2.696   4.560
 1030SOL    HW2 3226   0.128   2.641   4.431
 1031SOL     OW 3227   0.114   3.632   0.350
 1031SOL    HW1 3228   0.181   3.687   0.310
 1031SOL    HW2 3229   0.071   3.589   0.276
 1032SOL     OW 3230   0.869   2.157   3.946
 1032SOL    HW1 3231   0.935   2.101   3.906
 1032SOL    HW2 3232   0.786   2.110   3.932
 1033SOL     OW 3233   1.390   3.059   4.238
 1033SOL    HW1 3234   1.461   3.082   4.299
 1033SOL    HW2 3235   1.316   3.039   4.295
 1034SOL     OW 3236   0.569   2.072   4.629
 1034SOL    HW1 3237   0.612   2.086   4.713
 1034SOL    HW2 3238   0.594   1.984   4.603
 1035SOL     OW 3239   0.955   3.319   4.230
 1035SOL    HW1 3240   0.911   3.370   4.298
 1035SOL    HW2 3241   1.048   3.337   4.244
 1036SOL     OW 3242   0.309   3.608   4.496
 1036SOL    HW1 3243   0.257   3.634   4.572
 1036SOL    HW2 3244   0.270   3.525   4.467
 1037SOL     OW 3245   1.757   2.914   4.563
 1037SOL    HW1 3246   1.823   2.983   4.567
 1037SOL    HW2 3247   1.807   2.832   4.560
 1038SOL     OW 3248   0.394   2.828   3.999
 1038SOL    HW1 3249   0.365   2.874   4.078
 1038SOL    HW2 3250   0.315   2.787   3.965
 1039SOL     OW 3251   1.476   2.640   4.436
 1039SOL    HW1 3252   1.487   2.581   4.511
 1039SOL    HW2 3253   1.506   2.588   4.361
 1040SOL     OW 3254   1.107   3.668   3.977
 1040SOL    HW1 3255   1.154   3.649   4.058
 1040SOL    HW2 3256   1.141   3.605   3.914
 1041SOL     OW 3257   1.601   3.246   3.811
 1041SOL    HW1 3258   1.557   3.329   3.827
 1041SOL    HW2 3259   1.633   3.252   3.722
 1042SOL     OW 3260   0.474   3.574   4.034
 1042SOL    HW1 3261   0.509   3.639   4.096
 1042SOL    HW2 3262   0.383   3.561   4.061
 1043SOL     OW 3263   1.324   1.953   4.145
 1043SOL    HW1 3264   1.301   2.045   4.162
 1043SOL    HW2 3265   1.271   1.929   4.069
 1044SOL     OW 3266   0.249   3.625   4.946
 1044SOL    HW1 3267   0.291   3.670   5.019
 1044SOL    HW2 3268   0.159   3.612   4.976
 1045SOL     OW 3269   1.005   3.567   4.648
 1045SOL    HW1 3270   1.016   3.607   4.735
 1045SOL    HW2 3271   0.997   3.642   4.589
 1046SOL     OW 3272   0.351   2.557   4.186
 1046SOL    HW1 3273   0.411   2.588   4.254
 1046SOL    HW2 3274   0.378   2.468   4.169
 1047SOL     OW 3275   0.633   1.985   3.812
 1047SOL    HW1 3276   0.587   2.047   3.869
 1047SOL    HW2 3277   0.682   2.040   3.752
 1048SOL     OW 3278   0.813   3.225   4.661
 1048SOL    HW1 3279   0.834   3.281   4.736
 1048SOL    HW2 3280   0.893   3.223   4.609
 1049SOL     OW 3281   0.947   2.335   4.662
 1049SOL    HW1 3282   0.895   2.343   4.582
 1049SOL    HW2 3283   1.031   2.300   4.634
 1050SOL     OW 3284   0.560   1.937   4.195
 1050SOL    HW1 3285   0.652   1.924   4.217
 1050SOL    HW2 3286   0.537   1.861   4.141
 1051SOL     OW 3287   1.427   3.040   3.779
 1051SOL    HW1 3288   1.486   3.108   3.810
 1051SOL    HW2 3289   1.436   3.041   3.684
 1052SOL     OW 3290   0.300   1.899   3.913
 1052SOL    HW1 3291   0.367   1.848   3.959
 1052SOL    HW2 3292   0.265   1.840   3.847
 1053SOL     OW 3293   0.945   2.169   4.217
 1053SOL    HW1 3294   0.905   2.086   4.240
 1053SOL    HW2 3295   0.912   2.189   4.130
 1054SOL     OW 3296   1.200   3.445   4.497
 1054SOL    HW1 3297   1.134   3.485   4.554
 1054SOL    HW2 3298   1.283   3.459   4.542
 1055SOL     OW 3299   0.463   2.996   4.451
 1055SOL    HW1 3300   0.495   3.085   4.464
 1055SOL    HW2 3301   0.420   2.998   4.365
 1056SOL     OW 3302   1.205   3.682   4.329
 1056SOL    HW1 3303   1.293   3.708   4.300
 1056SOL    HW2 3304   1.216   3.593   4.361
 1057SOL     OW 3305   1.039   2.463   3.727
 1057SOL    HW1 3306   1.099   2.453   3.801
 1057SOL    HW2 3307   1.054   2.386   3.673
 1058SOL     OW 3308   0.867   2.371   4.402
 1058SOL    HW1 3309   0.925   2.444   4.380
 1058SOL    HW2 3310   0.883   2.306   4.333
 1059SOL     OW 3311   0.985   1.881   4.473
 1059SOL    HW1 3312   0.986   1.948   4.540
 1059SOL    HW2 3313   1.075   1.878   4.441
 1060SOL     OW 3314   1.380   3.029   4.595
 1060SOL    HW1 3315   1.342   3.007   4.680
 1060SOL    HW2 3316   1.433   2.953   4.572
 1061SOL     OW 3317   1.495   2.447   4.660
 1061SOL    HW1 3318   1.447   2.524   4.691
 1061SOL    HW2 3319   1.428   2.379   4.649
 1062SOL     OW 3320   1.918   2.737   4.166
 1062SOL    HW1 3321   1.953   2.662   4.215
 1062SOL    HW2 3322   1.837   2.759   4.212
 1063SOL     OW 3323   0.516   3.238   3.908
 1063SOL    HW1 3324   0.505   3.253   4.001
 1063SOL    HW2 3325   0.572   3.310   3.878
 1064SOL     OW 3326   1.647   3.127   4.351
 1064SOL    HW1 3327   1.714   3.094   4.411
 1064SOL    HW2 3328   1.672   3.090   4.266
 1065SOL     OW 3329   1.410   2.427   3.784
 1065SOL    HW1 3330   1.348   2.401   3.853
 1065SOL    HW2 3331   1.388   2.518   3.766
 1066SOL     OW 3332   0.538   2.149   4.024
 1066SOL    HW1 3333   0.527   2.215   4.092
 1066SOL    HW2 3334   0.541   2.066   4.071
 1067SOL     OW 3335   1.100   3.049   4.801
 1067SOL    HW1 3336   1.020   3.099   4.783
 1067SOL    HW2 3337   1.069   2.971   4.847
 1068SOL     OW 3338   1.684   2.975   4.836
 1068SOL    HW1 3339   1.715   2.981   4.746
 1068SOL    HW2 3340   1.616   3.042   4.844
 1069SOL     OW 3341   0.679   2.965   4.109
 1069SOL    HW1 3342   0.687   2.932   4.199
 1069SOL    HW2 3343   0.586   2.957   4.089
 1070SOL     OW 3344   0.391   2.658   4.977
 1070SOL    HW1 3345   0.451   2.721   5.017
 1070SOL    HW2 3346   0.430   2.642   4.890
 1071SOL     OW 3347   0.334   3.003   4.207
 1071SOL    HW1 3348   0.255   3.010   4.261
 1071SOL    HW2 3349   0.324   3.073   4.142
 1072SOL     OW 3350   0.491   2.309   4.514
 1072SOL    HW1 3351   0.475   2.355   4.596
 1072SOL    HW2 3352   0.527   2.224   4.540
 1073SOL     OW 3353   1.253   3.225   4.057
 1073SOL    HW1 3354   1.286   3.305   4.099
 1073SOL    HW2 3355   1.292   3.154   4.108
 1074SOL     OW 3356   1.307   3.300   4.834
 1074SOL    HW1 3357   1.342   3.358   4.901
 1074SOL    HW2 3358   1.240   3.248   4.879
 1075SOL     OW 3359   1.582   2.544   4.203
 1075SOL    HW1 3360   1.584   2.448   4.194
 1075SOL    HW2 3361   1.625   2.577   4.125
 1076SOL     OW 3362   0.557   2.733   4.738
 1076SOL    HW1 3363   0.600   2.817   4.749
 1076SOL    HW2 3364   0.623   2.668   4.763
 1077SOL     OW 3365   1.351   2.654   4.734
 1077SOL    HW1 3366   1.309   2.640   4.819
 1077SOL    HW2 3367   1.364   2.748   4.728
 1078SOL     OW 3368   1.181   2.382   3.962
 1078SOL    HW1 3369   1.155   2.454   4.020
 1078SOL    HW2 3370   1.103   2.326   3.958
 1079SOL     OW 3371   0.321   2.091   4.969
 1079SOL    HW1 3372   0.341   2.177   4.932
 1079SOL    HW2 3373   0.406   2.050   4.981
 1080SOL     OW 3374   0.081   3.122   0.017
 1080SOL    HW1 3375   0.142   3.056  -0.018
 1080SOL    HW2 3376  -0.000   3.074   0.031
 1081SOL     OW 3377   0.725   2.534   4.808
 1081SOL    HW1 3378   0.705   2.457   4.862
 1081SOL    HW2 3379   0.816   2.554   4.830
 1082SOL     OW 3380   0.349   1.894   4.376
 1082SOL    HW1 3381   0.421   1.929   4.323
 1082SOL    HW2 3382   0.304   1.833   4.318
 1083SOL     OW 3383   1.609   2.280   4.108
 1083SOL    HW1 3384   1.611   2.214   4.177
 1083SOL    HW2 3385   1.572   2.234   4.032
 1084SOL     OW 3386   1.023   2.597   4.678
 1084SOL    HW1 3387   1.024   2.631   4.767
 1084SOL    HW2 3388   0.997   2.505   4.687
 1085SOL     OW 3389   1.529   2.168   3.871
 1085SOL    HW1 3390   1.492   2.239   3.818
 1085SOL    HW2 3391   1.608   2.142   3.824
 1086SOL     OW 3392   1.329   2.689   3.744
 1086SOL    HW1 3393   1.390   2.731   3.805
 1086SOL    HW2 3394   1.243   2.725   3.766
 1087SOL     OW 3395   1.067   3.201   4.548
 1087SOL    HW1 3396   1.134   3.163   4.604
 1087SOL    HW2 3397   1.106   3.282   4.515
 1088SOL     OW 3398   0.322   2.615   4.683
 1088SOL    HW1 3399   0.402   2.666   4.694
 1088SOL    HW2 3400   0.280   2.653   4.606
 1089SOL     OW 3401   0.286   2.350   4.753
 1089SOL    HW1 3402   0.193   2.360   4.771
 1089SOL    HW2 3403   0.317   2.438   4.734
 1090SOL     OW 3404   1.119   2.034   0.188
 1090SOL    HW1 3405   1.152   2.091   0.257
 1090SOL    HW2 3406   1.117   1.947   0.228
 1091SOL     OW 3407   4.997   3.212   3.871
 1091SOL    HW1 3408   4.965   3.298   3.842
 1091SOL    HW2 3409   5.043   3.178   3.795
 1092SOL     OW 3410   0.152   3.687   4.701
 1092SOL    HW1 3411   0.207   3.669   4.778
 1092SOL    HW2 3412   0.065   3.659   4.727
 1093SOL     OW 3413   0.501   3.457   4.626
 1093SOL    HW1 3414   0.576   3.510   4.652
 1093SOL    HW2 3415   0.444   3.518   4.580
 1094SOL     OW 3416   0.980   2.676   4.937
 1094SOL    HW1 3417   1.042   2.731   4.985
 1094SOL    HW2 3418   0.991   2.589   4.974
 1095SOL     OW 3419   0.027   2.413   4.822
 1095SOL    HW1 3420   0.031   2.346   4.891
 1095SOL    HW2 3421   0.037   2.496   4.870
 1096SOL     OW 3422   0.836   2.413   4.058
 1096SOL    HW1 3423   0.750   2.454   4.047
 1096SOL    HW2 3424   0.831   2.333   4.005
 1097SOL     OW 3425   1.653   2.496   4.891
 1097SOL    HW1 3426   1.610   2.465   4.812
 1097SOL    HW2 3427   1.733   2.443   4.896
 1098SOL     OW 3428   0.683   2.330  -0.006
 1098SOL    HW1 3429   0.754   2.302   0.050
 1098SOL    HW2 3430   0.609   2.344   0.053
 1099SOL     OW 3431   0.461   2.382   3.893
 1099SOL    HW1 3432   0.510   2.306   3.922
 1099SOL    HW2 3433   0.511   2.457   3.924
 1100SOL     OW 3434   1.382   2.899   4.859
 1100SOL    HW1 3435   1.386   2.971   4.921
 1100SOL    HW2 3436   1.350   2.825   4.909
 1101SOL     OW 3437   1.256   2.772   4.040
 1101SOL    HW1 3438   1.207   2.698   4.076
 1101SOL    HW2 3439   1.195   2.814   3.979
 1102SOL     OW 3440   1.711   3.633   4.815
 1102SOL    HW1 3441   1.693   3.651   4.907
 1102SOL    HW2 3442   1.730   3.539   4.812
 1103SOL     OW 3443   0.060   3.129   4.713
 1103SOL    HW1 3444   0.125   3.191   4.749
 1103SOL    HW2 3445   0.113   3.062   4.670
 1104SOL     OW 3446   1.700   1.983   4.275
 1104SOL    HW1 3447   1.776   2.020   4.229
 1104SOL    HW2 3448   1.698   2.029   4.359
 1105SOL     OW 3449   1.377   3.429   4.193
 1105SOL    HW1 3450   1.418   3.411   4.278
 1105SOL    HW2 3451   1.446   3.473   4.142
 1106SOL     OW 3452   1.250   2.773   4.359
 1106SOL    HW1 3453   1.325   2.732   4.401
 1106SOL    HW2 3454   1.280   2.793   4.271
 1107SOL     OW 3455   0.669   3.463   3.873
 1107SOL    HW1 3456   0.600   3.516   3.913
 1107SOL    HW2 3457   0.679   3.500   3.785
 1108SOL     OW 3458   1.658   3.634   0.090
 1108SOL    HW1 3459   1.613   3.603   0.168
 1108SOL    HW2 3460   1.742   3.587   0.090
 1109SOL     OW 3461   1.855   2.024   4.582
 1109SOL    HW1 3462   1.764   2.037   4.611
 1109SOL    HW2 3463   1.869   1.930   4.591
 1110SOL     OW 3464   0.229   2.267   4.429
 1110SOL    HW1 3465   0.318   2.294   4.449
 1110SOL    HW2 3466   0.211   2.195   4.490
 1111SOL     OW 3467   1.185   3.505   3.782
 1111SOL    HW1 3468   1.239   3.426   3.778
 1111SOL    HW2 3469   1.119   3.492   3.713
 1112SOL     OW 3470   0.817   2.875   0.055
 1112SOL    HW1 3471   0.855   2.866   0.142
 1112SOL    HW2 3472   0.858   2.804   0.004
 1113SOL     OW 3473   0.856   2.757   4.017
 1113SOL    HW1 3474   0.836   2.827   4.079
 1113SOL    HW2 3475   0.937   2.785   3.973
 1114SOL     OW 3476   1.491   3.498   3.800
 1114SOL    HW1 3477   1.434   3.575   3.811
 1114SOL    HW2 3478   1.520   3.502   3.709
 1115SOL     OW 3479   1.044   2.969   4.330
 1115SOL    HW1 3480   1.039   3.030   4.403
 1115SOL    HW2 3481   1.103   2.900   4.361
 1116SOL     OW 3482   1.001   2.057   4.701
 1116SOL    HW1 3483   1.086   2.100   4.704
 1116SOL    HW2 3484   0.938   2.127   4.719
 1117SOL     OW 3485   0.584   3.311   4.184
 1117SOL    HW1 3486   0.579   3.287   4.276
 1117SOL    HW2 3487   0.570   3.406   4.183
 1118SOL     OW 3488   1.748   2.288   0.105
 1118SOL    HW1 3489   1.707   2.272   0.190
 1118SOL    HW2 3490   1.713   2.220   0.048
 1119SOL     OW 3491   0.250   3.197   4.032
 1119SOL    HW1 3492   0.162   3.169   4.009
 1119SOL    HW2 3493   0.296   3.204   3.948
 1120SOL     OW 3494   0.014   2.069   3.983
 1120SOL    HW1 3495   0.104   2.101   3.985
 1120SOL    HW2 3496   0.008   2.010   4.058
 1121SOL     OW 3497   1.189   3.177   3.796
 1121SOL    HW1 3498   1.264   3.118   3.789
 1121SOL    HW2 3499   1.189   3.205   3.887
 1122SOL     OW 3500   1.478   3.631   4.662
 1122SOL    HW1 3501   1.554   3.614   4.717
 1122SOL    HW2 3502   1.491   3.720   4.629
 1123SOL     OW 3503   1.221   2.205   4.201
 1123SOL    HW1 3504   1.127   2.192   4.213
 1123SOL    HW2 3505   1.228   2.268   4.129
 1124SOL     OW 3506   0.571   2.567   4.358
 1124SOL    HW1 3507   0.607   2.650   4.389
 1124SOL    HW2 3508   0.596   2.504   4.426
 1125SOL     OW 3509   1.763   2.842   0.207
 1125SOL    HW1 3510   1.774   2.931   0.240
 1125SOL    HW2 3511   1.677   2.815   0.238
 1126SOL     OW 3512   0.881   3.210   3.805
 1126SOL    HW1 3513   0.968   3.188   3.772
 1126SOL    HW2 3514   0.821   3.173   3.741
 1127SOL     OW 3515   0.685   3.670   4.649
 1127SOL    HW1 3516   0.763   3.689   4.701
 1127SOL    HW2 3517   0.650   3.756   4.626
 1128SOL     OW 3518   0.865   2.799   4.570
 1128SOL    HW1 3519   0.945   2.768   4.612
 1128SOL    HW2 3520   0.823   2.719   4.537
 1129SOL     OW 3521   1.071   2.826   3.825
 1129SOL    HW1 3522   1.009   2.769   3.779
 1129SOL    HW2 3523   1.066   2.909   3.779
 1130SOL     OW 3524   1.884   3.437   4.590
 1130SOL    HW1 3525   1.831   3.402   4.661
 1130SOL    HW2 3526   1.874   3.375   4.518
 1131SOL     OW 3527   0.114   3.093   4.342
 1131SOL    HW1 3528   0.047   3.124   4.280
 1131SOL    HW2 3529   0.064   3.046   4.409
 1132SOL     OW 3530   1.796   2.005   4.959
 1132SOL    HW1 3531   1.870   2.018   5.018
 1132SOL    HW2 3532   1.719   2.022   5.013
 1133SOL     OW 3533   0.505   2.326   4.223
 1133SOL    HW1 3534   0.485   2.286   4.308
 1133SOL    HW2 3535   0.559   2.402   4.244
 1134SOL     OW 3536   1.725   3.357   4.801
 1134SOL    HW1 3537   1.721   3.307   4.882
 1134SOL    HW2 3538   1.650   3.326   4.750
 1135SOL     OW 3539   0.824   3.474   4.411
 1135SOL    HW1 3540   0.830   3.486   4.505
 1135SOL    HW2 3541   0.812   3.563   4.376
 1136SOL     OW 3542   1.396   2.023   4.792
 1136SOL    HW1 3543   1.381   2.012   4.886
 1136SOL    HW2 3544   1.412   1.934   4.760
 1137SOL     OW 3545   0.931   1.848   4.865
 1137SOL    HW1 3546   0.964   1.921   4.812
 1137SOL    HW2 3547   0.955   1.770   4.817
 1138SOL     OW 3548   1.377   1.938   3.819
 1138SOL    HW1 3549   1.419   1.862   3.859
 1138SOL    HW2 3550   1.418   2.013   3.862
 1139SOL     OW 3551   1.340   2.253   4.448
 1139SOL    HW1 3552   1.427   2.285   4.422
 1139SOL    HW2 3553   1.297   2.234   4.365
 1140SOL     OW 3554   1.591   2.087   4.604
 1140SOL    HW1 3555   1.530   2.070   4.676
 1140SOL    HW2 3556   1.546   2.152   4.550
 1141SOL     OW 3557   5.005   2.933   4.049
 1141SOL    HW1 3558   4.973   2.889   4.128
 1141SOL    HW2 3559   4.958   2.891   3.977
 1142SOL     OW 3560   0.851   3.581   4.045
 1142SOL    HW1 3561   0.939   3.600   4.011
 1142SOL    HW2 3562   0.809   3.530   3.976
 1143SOL     OW 3563   0.192   4.360   0.117
 1143SOL    HW1 3564   0.275   4.405   0.098
 1143SOL    HW2 3565   0.170   4.387   0.205
 1144SOL     OW 3566   0.256   3.963   0.994
 1144SOL    HW1 3567   0.255   3.958   1.089
 1144SOL    HW2 3568   0.167   3.991   0.970
 1145SOL     OW 3569   0.026   4.096   0.608
 1145SOL    HW1 3570   0.105   4.094   0.662
 1145SOL    HW2 3571   0.053   4.056   0.525
 1146SOL     OW 3572   1.134   4.374   0.724
 1146SOL    HW1 3573   1.098   4.448   0.774
 1146SOL    HW2 3574   1.103   4.388   0.635
 1147SOL     OW 3575   1.756   4.382   0.247
 1147SOL    HW1 3576   1.680   4.373   0.304
 1147SOL    HW2 3577   1.724   4.360   0.160
 1148SOL     OW 3578   0.684   4.892   0.955
 1148SOL    HW1 3579   0.735   4.969   0.980
 1148SOL    HW2 3580   0.750   4.827   0.930
 1149SOL     OW 3581   0.863   4.537   1.814
 1149SOL    HW1 3582   0.938   4.494   1.855
 1149SOL    HW2 3583   0.801   4.466   1.798
 1150SOL     OW 3584   0.666   4.706   0.668
 1150SOL    HW1 3585   0.735   4.707   0.735
 1150SOL    HW2 3586   0.708   4.742   0.590
 1151SOL     OW 3587   0.714   4.888   1.836
 1151SOL    HW1 3588   0.791   4.944   1.834
 1151SOL    HW2 3589   0.675   4.898   1.748
 1152SOL     OW 3590   0.451   4.195   1.519
 1152SOL    HW1 3591   0.382   4.136   1.550
 1152SOL    HW2 3592   0.427   4.214   1.428
 1153SOL     OW 3593   1.610   4.152   0.729
 1153SOL    HW1 3594   1.523   4.178   0.700
 1153SOL    HW2 3595   1.664   4.156   0.650
 1154SOL     OW 3596   0.222   4.796   0.919
 1154SOL    HW1 3597   0.290   4.845   0.874
 1154SOL    HW2 3598   0.247   4.704   0.907
 1155SOL     OW 3599   0.574   4.740   0.082
 1155SOL    HW1 3600   0.593   4.651   0.114
 1155SOL    HW2 3601   0.483   4.755   0.108
 1156SOL     OW 3602   1.611   3.853   1.473
 1156SOL    HW1 3603   1.634   3.763   1.449
 1156SOL    HW2 3604   1.586   3.894   1.391
 1157SOL     OW 3605   0.112   4.358   0.557
 1157SOL    HW1 3606   0.083   4.405   0.636
 1157SOL    HW2 3607   0.075   4.270   0.568
 1158SOL     OW 3608   1.681   4.613   0.601
 1158SOL    HW1 3609   1.696   4.658   0.684
 1158SOL    HW2 3610   1.666   4.683   0.538
 1159SOL     OW 3611   1.648   4.847   0.460
 1159SOL    HW1 3612   1.556   4.860   0.482
 1159SOL    HW2 3613   1.649   4.826   0.367
 1160SOL     OW 3614   0.097   4.461   1.605
 1160SOL    HW1 3615   0.078   4.545   1.645
 1160SOL    HW2 3616   0.187   4.468   1.574
 1161SOL     OW 3617   1.256   4.960   1.384
 1161SOL    HW1 3618   1.314   4.950   1.460
 1161SOL    HW2 3619   1.204   5.037   1.405
 1162SOL     OW 3620   0.838   3.684   0.470
 1162SOL    HW1 3621   0.835   3.641   0.555
 1162SOL    HW2 3622   0.872   3.772   0.489
 1163SOL     OW 3623   0.187   4.684   1.251
 1163SOL    HW1 3624   0.236   4.749   1.201
 1163SOL    HW2 3625   0.250   4.615   1.271
 1164SOL     OW 3626   1.439   4.752   0.201
 1164SOL    HW1 3627   1.410   4.843   0.202
 1164SOL    HW2 3628   1.534   4.757   0.186
 1165SOL     OW 3629   0.312   3.940   1.722
 1165SOL    HW1 3630   0.309   3.972   1.812
 1165SOL    HW2 3631   0.389   3.884   1.718
 1166SOL     OW 3632   0.600   4.484   0.187
 1166SOL    HW1 3633   0.537   4.483   0.115
 1166SOL    HW2 3634   0.591   4.398   0.228
 1167SOL     OW 3635   1.289   4.079   0.959
 1167SOL    HW1 3636   1.322   4.019   1.025
 1167SOL    HW2 3637   1.334   4.162   0.976
 1168SOL     OW 3638   0.818   4.343   1.481
 1168SOL    HW1 3639   0.914   4.338   1.478
 1168SOL    HW2 3640   0.789   4.283   1.413
 1169SOL     OW 3641   1.432   4.198   1.720
 1169SOL    HW1 3642   1.518   4.232   1.747
 1169SOL    HW2 3643   1.444   4.103   1.718
 1170SOL     OW 3644   0.976   4.615   1.575
 1170SOL    HW1 3645   0.929   4.580   1.651
 1170SOL    HW2 3646   0.908   4.626   1.509
 1171SOL     OW 3647   0.994   4.090   1.245
 1171SOL    HW1 3648   0.905   4.123   1.252
 1171SOL    HW2 3649   0.992   4.034   1.167
 1172SOL     OW 3650   1.052   4.397   0.463
 1172SOL    HW1 3651   1.026   4.477   0.418
 1172SOL    HW2 3652   1.110   4.353   0.400
 1173SOL     OW 3653   0.046   4.493   0.790
 1173SOL    HW1 3654   0.141   4.501   0.799
 1173SOL    HW2 3655   0.011   4.533   0.869
 1174SOL     OW 3656   0.896   4.075   0.157
 1174SOL    HW1 3657   0.883   4.139   0.227
 1174SOL    HW2 3658   0.823   4.089   0.097
 1175SOL     OW 3659   1.683   4.282   1.806
 1175SOL    HW1 3660   1.699   4.300   1.898
 1175SOL    HW2 3661   1.768   4.255   1.771
 1176SOL     OW 3662   1.389   4.878   0.545
 1176SOL    HW1 3663   1.379   4.891   0.639
 1176SOL    HW2 3664   1.368   4.963   0.507
 1177SOL     OW 3665   0.498   3.943   0.867
 1177SOL    HW1 3666   0.410   3.927   0.902
 1177SOL    HW2 3667   0.505   3.883   0.793
 1178SOL     OW 3668   1.726   4.759   0.831
 1178SOL    HW1 3669   1.773   4.831   0.788
 1178SOL    HW2 3670   1.790   4.688   0.836
 1179SOL     OW 3671   0.353   4.679   0.304
 1179SOL    HW1 3672   0.351   4.589   0.336
 1179SOL    HW2 3673   0.262   4.699   0.283
 1180SOL     OW 3674   1.503   4.463   0.759
 1180SOL    HW1 3675   1.579   4.497   0.712
 1180SOL    HW2 3676   1.428   4.505   0.717
 1181SOL     OW 3677   0.200   4.059   1.511
 1181SOL    HW1 3678   0.226   3.999   1.581
 1181SOL    HW2 3679   0.225   4.013   1.430
 1182SOL     OW 3680   1.432   3.870   0.425
 1182SOL    HW1 3681   1.392   3.806   0.483
 1182SOL    HW2 3682   1.360   3.930   0.402
 1183SOL     OW 3683   0.336   4.423   0.422
 1183SOL    HW1 3684   0.252   4.411   0.466
 1183SOL    HW2 3685   0.388   4.346   0.446
 1184SOL     OW 3686   1.527   3.945   1.729
 1184SOL    HW1 3687   1.611   3.980   1.700
 1184SOL    HW2 3688   1.504   3.881   1.662
 1185SOL     OW 3689   0.644   3.854   0.118
 1185SOL    HW1 3690   0.652   3.911   0.194
 1185SOL    HW2 3691   0.554   3.821   0.122
 1186SOL     OW 3692   0.754   3.963   1.784
 1186SOL    HW1 3693   0.842   3.927   1.771
 1186SOL    HW2 3694   0.754   4.044   1.733
 1187SOL     OW 3695   0.959   4.207   0.874
 1187SOL    HW1 3696   0.910   4.258   0.939
 1187SOL    HW2 3697   1.026   4.267   0.842
 1188SOL     OW 3698   0.526   3.812   0.567
 1188SOL    HW1 3699   0.433   3.805   0.586
 1188SOL    HW2 3700   0.548   3.731   0.522
 1189SOL     OW 3701   0.957   3.931   0.529
 1189SOL    HW1 3702   1.041   3.970   0.503
 1189SOL    HW2 3703   0.903   4.006   0.554
 1190SOL     OW 3704   1.114   4.405   1.464
 1190SOL    HW1 3705   1.087   4.478   1.521
 1190SOL    HW2 3706   1.091   4.434   1.376
 1191SOL     OW 3707   0.445   4.891   0.788
 1191SOL    HW1 3708   0.532   4.866   0.818
 1191SOL    HW2 3709   0.439   4.857   0.699
 1192SOL     OW 3710   1.029   4.274   4.994
 1192SOL    HW1 3711   1.004   4.205   5.055
 1192SOL    HW2 3712   0.970   4.262   4.919
 1193SOL     OW 3713   0.082   4.251   1.344
 1193SOL    HW1 3714   0.003   4.298   1.372
 1193SOL    HW2 3715   0.093   4.182   1.410
 1194SOL     OW 3716   0.552   3.917   1.142
 1194SOL    HW1 3717   0.546   3.948   1.051
 1194SOL    HW2 3718   0.606   3.839   1.137
 1195SOL     OW 3719   0.822   4.141   0.647
 1195SOL    HW1 3720   0.887   4.166   0.712
 1195SOL    HW2 3721   0.738   4.154   0.691
 1196SOL     OW 3722   1.043   3.778   0.742
 1196SOL    HW1 3723   1.043   3.835   0.819
 1196SOL    HW2 3724   1.004   3.832   0.673
 1197SOL     OW 3725   1.403   4.865   0.821
 1197SOL    HW1 3726   1.437   4.924   0.888
 1197SOL    HW2 3727   1.464   4.792   0.819
 1198SOL     OW 3728   1.444   4.309   0.989
 1198SOL    HW1 3729   1.387   4.378   1.023
 1198SOL    HW2 3730   1.476   4.343   0.906
 1199SOL     OW 3731   1.916   4.558   0.379
 1199SOL    HW1 3732   1.880   4.561   0.468
 1199SOL    HW2 3733   1.869   4.486   0.337
 1200SOL     OW 3734   1.400   4.270   0.025
 1200SOL    HW1 3735   1.352   4.352   0.014
 1200SOL    HW2 3736   1.352   4.206  -0.028
 1201SOL     OW 3737   0.535   3.992   0.358
 1201SOL    HW1 3738   0.561   3.938   0.432
 1201SOL    HW2 3739   0.469   3.940   0.312
 1202SOL     OW 3740   1.796   4.921   1.557
 1202SOL    HW1 3741   1.796   4.925   1.652
 1202SOL    HW2 3742   1.733   4.988   1.530
 1203SOL     OW 3743   1.699   4.801   1.100
 1203SOL    HW1 3744   1.782   4.849   1.107
 1203SOL    HW2 3745   1.689   4.785   1.006
 1204SOL     OW 3746   0.925   3.804   1.447
 1204SOL    HW1 3747   0.846   3.858   1.442
 1204SOL    HW2 3748   0.957   3.800   1.357
 1205SOL     OW 3749   0.986   4.822   1.759
 1205SOL    HW1 3750   0.920   4.762   1.794
 1205SOL    HW2 3751   1.016   4.780   1.678
 1206SOL     OW 3752   0.685   4.725   0.373
 1206SOL    HW1 3753   0.686   4.807   0.323
 1206SOL    HW2 3754   0.619   4.671   0.328
 1207SOL     OW 3755   0.428   4.533   1.245
 1207SOL    HW1 3756   0.496   4.543   1.312
 1207SOL    HW2 3757   0.400   4.442   1.253
 1208SOL     OW 3758   1.334   4.184   1.266
 1208SOL    HW1 3759   1.369   4.097   1.246
 1208SOL    HW2 3760   1.241   4.179   1.242
 1209SOL     OW 3761   0.411   4.840   0.522
 1209SOL    HW1 3762   0.504   4.851   0.507
 1209SOL    HW2 3763   0.381   4.785   0.449
 1210SOL     OW 3764   0.602   4.302   0.898
 1210SOL    HW1 3765   0.513   4.278   0.923
 1210SOL    HW2 3766   0.591   4.355   0.818
 1211SOL     OW 3767   1.543   4.377   0.420
 1211SOL    HW1 3768   1.525   4.399   0.511
 1211SOL    HW2 3769   1.542   4.281   0.418
 1212SOL     OW 3770   0.384   4.466   1.569
 1212SOL    HW1 3771   0.462   4.504   1.529
 1212SOL    HW2 3772   0.399   4.371   1.566
 1213SOL     OW 3773   1.522   4.471   1.683
 1213SOL    HW1 3774   1.598   4.425   1.718
 1213SOL    HW2 3775   1.474   4.499   1.760
 1214SOL     OW 3776   0.999   3.869   1.709
 1214SOL    HW1 3777   1.068   3.807   1.732
 1214SOL    HW2 3778   0.976   3.848   1.618
 1215SOL     OW 3779   0.539   3.799   1.716
 1215SOL    HW1 3780   0.621   3.847   1.725
 1215SOL    HW2 3781   0.566   3.709   1.696
 1216SOL     OW 3782   0.595   4.614   1.032
 1216SOL    HW1 3783   0.531   4.585   1.098
 1216SOL    HW2 3784   0.569   4.705   1.013
 1217SOL     OW 3785   1.287   4.539   1.032
 1217SOL    HW1 3786   1.295   4.611   1.095
 1217SOL    HW2 3787   1.311   4.578   0.948
 1218SOL     OW 3788   1.204   4.237   0.284
 1218SOL    HW1 3789   1.256   4.301   0.236
 1218SOL    HW2 3790   1.206   4.158   0.229
 1219SOL     OW 3791   0.309   3.937   1.280
 1219SOL    HW1 3792   0.397   3.932   1.244
 1219SOL    HW2 3793   0.274   3.849   1.272
 1220SOL     OW 3794   0.034   0.068   1.309
 1220SOL    HW1 3795   0.110   0.127   1.316
 1220SOL    HW2 3796   0.038   0.035   1.219
 1221SOL     OW 3797   0.811   4.340   1.067
 1221SOL    HW1 3798   0.781   4.298   1.148
 1221SOL    HW2 3799   0.735   4.337   1.009
 1222SOL     OW 3800   1.695   4.700   1.808
 1222SOL    HW1 3801   1.652   4.710   1.892
 1222SOL    HW2 3802   1.788   4.711   1.827
 1223SOL     OW 3803   0.264   3.798   0.669
 1223SOL    HW1 3804   0.187   3.810   0.724
 1223SOL    HW2 3805   0.245   3.720   0.618
 1224SOL     OW 3806   1.588   4.108   0.390
 1224SOL    HW1 3807   1.648   4.091   0.318
 1224SOL    HW2 3808   1.538   4.027   0.400
 1225SOL     OW 3809   1.022   4.491   0.957
 1225SOL    HW1 3810   1.108   4.494   0.999
 1225SOL    HW2 3811   0.966   4.448   1.022
 1226SOL     OW 3812   0.342   4.607   1.840
 1226SOL    HW1 3813   0.429   4.636   1.867
 1226SOL    HW2 3814   0.347   4.603   1.745
 1227SOL     OW 3815   1.563   3.898   0.076
 1227SOL    HW1 3816   1.631   3.963   0.094
 1227SOL    HW2 3817   1.609   3.814   0.081
 1228SOL     OW 3818   1.281   4.514   0.026
 1228SOL    HW1 3819   1.274   4.522   0.121
 1228SOL    HW2 3820   1.328   4.594  -0.001
 1229SOL     OW 3821   0.304   4.534   0.901
 1229SOL    HW1 3822   0.293   4.475   0.975
 1229SOL    HW2 3823   0.387   4.509   0.862
 1230SOL     OW 3824   0.337   4.243   0.993
 1230SOL    HW1 3825   0.242   4.250   1.006
 1230SOL    HW2 3826   0.349   4.158   0.951
 1231SOL     OW 3827   1.165   4.081   1.640
 1231SOL    HW1 3828   1.171   4.154   1.701
 1231SOL    HW2 3829   1.104   4.020   1.681
 1232SOL     OW 3830   1.232   3.943   1.401
 1232SOL    HW1 3831   1.230   3.975   1.491
 1232SOL    HW2 3832   1.147   3.969   1.365
 1233SOL     OW 3833   4.946   5.017   0.225
 1233SOL    HW1 3834   4.985   4.937   0.261
 1233SOL    HW2 3835   4.979   5.021   0.135
 1234SOL     OW 3836   1.017   4.545   1.252
 1234SOL    HW1 3837   0.938   4.597   1.268
 1234SOL    HW2 3838   1.080   4.608   1.216
 1235SOL     OW 3839   0.076   4.231   1.073
 1235SOL    HW1 3840   0.072   4.236   1.169
 1235SOL    HW2 3841  -0.015   4.221   1.046
 1236SOL     OW 3842   0.152   4.232   1.741
 1236SOL    HW1 3843   0.121   4.311   1.695
 1236SOL    HW2 3844   0.165   4.168   1.671
 1237SOL     OW 3845   1.404   4.721   1.652
 1237SOL    HW1 3846   1.484   4.670   1.669
 1237SOL    HW2 3847   1.343   4.692   1.720
 1238SOL     OW 3848   0.832   4.297   0.310
 1238SOL    HW1 3849   0.892   4.315   0.383
 1238SOL    HW2 3850   0.795   4.382   0.289
 1239SOL     OW 3851   1.678   4.311   1.160
 1239SOL    HW1 3852   1.668   4.256   1.238
 1239SOL    HW2 3853   1.598   4.297   1.110
 1240SOL     OW 3854   0.705   4.180   1.286
 1240SOL    HW1 3855   0.698   4.094   1.328
 1240SOL    HW2 3856   0.618   4.197   1.251
 1241SOL     OW 3857   0.503   4.223   0.211
 1241SOL    HW1 3858   0.407   4.232   0.216
 1241SOL    HW2 3859   0.522   4.145   0.263
 1242SOL     OW 3860   0.118   4.854   1.465
 1242SOL    HW1 3861   0.066   4.921   1.421
 1242SOL    HW2 3862   0.124   4.783   1.401
 1243SOL     OW 3863   1.294   4.743   1.215
 1243SOL    HW1 3864   1.343   4.687   1.275
 1243SOL    HW2 3865   1.285   4.826   1.263
 1244SOL     OW 3866   1.295   4.543   0.296
 1244SOL    HW1 3867   1.339   4.510   0.375
 1244SOL    HW2 3868   1.343   4.622   0.273
 1245SOL     OW 3869   0.075   4.989   1.051
 1245SOL    HW1 3870   0.118   5.070   1.025
 1245SOL    HW2 3871   0.118   4.921   0.998
 1246SOL     OW 3872   0.914   3.797   0.121
 1246SOL    HW1 3873   0.821   3.774   0.120
 1246SOL    HW2 3874   0.914   3.892   0.135
 1247SOL     OW 3875   1.721   3.854   0.533
 1247SOL    HW1 3876   1.629   3.857   0.506
 1247SOL    HW2 3877   1.770   3.865   0.451
 1248SOL     OW 3878   1.325   4.618   0.623
 1248SOL    HW1 3879   1.353   4.698   0.579
 1248SOL    HW2 3880   1.236   4.636   0.652
 1249SOL     OW 3881   1.851   3.923   0.978
 1249SOL    HW1 3882   1.879   3.837   0.945
 1249SOL    HW2 3883   1.761   3.932   0.946
 1250SOL     OW 3884   0.277   4.108   0.714
 1250SOL    HW1 3885   0.323   4.026   0.734
 1250SOL    HW2 3886   0.332   4.152   0.649
 1251SOL     OW 3887   0.817   4.735   1.357
 1251SOL    HW1 3888   0.868   4.810   1.390
 1251SOL    HW2 3889   0.774   4.769   1.279
 1252SOL     OW 3890   0.932   4.608   0.330
 1252SOL    HW1 3891   0.849   4.647   0.357
 1252SOL    HW2 3892   0.990   4.683   0.314
 1253SOL     OW 3893   0.339   0.014   1.493
 1253SOL    HW1 3894   0.271  -0.053   1.489
 1253SOL    HW2 3895   0.349   0.044   1.403
 1254SOL     OW 3896   1.573   5.024   1.217
 1254SOL    HW1 3897   1.600   5.033   1.308
 1254SOL    HW2 3898   1.612   4.940   1.189
 1255SOL     OW 3899   1.095   4.747   0.708
 1255SOL    HW1 3900   1.130   4.827   0.748
 1255SOL    HW2 3901   1.009   4.773   0.676
 1256SOL     OW 3902   1.033   3.964   0.969
 1256SOL    HW1 3903   1.124   3.992   0.964
 1256SOL    HW2 3904   0.983   4.037   0.932
 1257SOL     OW 3905   1.709   4.142   1.386
 1257SOL    HW1 3906   1.711   4.113   1.477
 1257SOL    HW2 3907   1.745   4.069   1.337
 1258SOL     OW 3908   0.071   4.710   1.700
 1258SOL    HW1 3909   0.090   4.760   1.780
 1258SOL    HW2 3910   0.083   4.773   1.629
 1259SOL     OW 3911   0.671   3.946   1.447
 1259SOL    HW1 3912   0.593   3.981   1.490
 1259SOL    HW2 3913   0.650   3.855   1.428
 1260SOL     OW 3914   0.012   4.039   5.005
 1260SOL    HW1 3915   0.030   4.129   4.977
 1260SOL    HW2 3916  -0.010   3.993   4.925
 1261SOL     OW 3917   1.421   4.589   1.401
 1261SOL    HW1 3918   1.509   4.590   1.362
 1261SOL    HW2 3919   1.430   4.641   1.481
 1262SOL     OW 3920   0.104   4.009   0.361
 1262SOL    HW1 3921   0.176   3.956   0.327
 1262SOL    HW2 3922   0.026   3.975   0.318
 1263SOL     OW 3923   0.626   4.541   1.439
 1263SOL    HW1 3924   0.683   4.614   1.417
 1263SOL    HW2 3925   0.686   4.468   1.457
 1264SOL     OW 3926   0.708   4.321   1.733
 1264SOL    HW1 3927   0.621   4.285   1.721
 1264SOL    HW2 3928   0.746   4.323   1.645
 1265SOL     OW 3929   1.391   4.989   1.639
 1265SOL    HW1 3930   1.378   5.013   1.731
 1265SOL    HW2 3931   1.404   4.894   1.640
 1266SOL     OW 3932   1.645   4.582   1.255
 1266SOL    HW1 3933   1.670   4.654   1.198
 1266SOL    HW2 3934   1.674   4.503   1.208
 1267SOL     OW 3935   1.207   4.049   0.485
 1267SOL    HW1 3936   1.254   4.090   0.558
 1267SOL    HW2 3937   1.200   4.118   0.419
 1268SOL     OW 3938   0.557   4.457   0.676
 1268SOL    HW1 3939   0.606   4.539   0.679
 1268SOL    HW2 3940   0.499   4.466   0.600
 1269SOL     OW 3941   1.773   4.030   1.641
 1269SOL    HW1 3942   1.828   4.017   1.718
 1269SOL    HW2 3943   1.786   3.950   1.589
 1270SOL     OW 3944   1.779   4.644   1.556
 1270SOL    HW1 3945   1.731   4.645   1.638
 1270SOL    HW2 3946   1.777   4.735   1.525
 1271SOL     OW 3947   0.827   4.670   0.888
 1271SOL    HW1 3948   0.759   4.623   0.937
 1271SOL    HW2 3949   0.906   4.615   0.898
 1272SOL     OW 3950   1.126   4.779  -0.003
 1272SOL    HW1 3951   1.043   4.827  -0.005
 1272SOL    HW2 3952   1.100   4.688   0.013
 1273SOL     OW 3953  -0.008   4.955   0.679
 1273SOL    HW1 3954   0.082   4.985   0.672
 1273SOL    HW2 3955  -0.055   5.027   0.721
 1274SOL     OW 3956   1.830   3.942   1.251
 1274SOL    HW1 3957   1.899   3.884   1.281
 1274SOL    HW2 3958   1.835   3.938   1.155
 1275SOL     OW 3959   0.465   4.199   0.528
 1275SOL    HW1 3960   0.547   4.228   0.566
 1275SOL    HW2 3961   0.489   4.126   0.471
 1276SOL     OW 3962   0.349   4.273   1.272
 1276SOL    HW1 3963   0.257   4.266   1.299
 1276SOL    HW2 3964   0.349   4.245   1.181
 1277SOL     OW 3965   1.396   3.917   1.153
 1277SOL    HW1 3966   1.339   3.886   1.224
 1277SOL    HW2 3967   1.446   3.840   1.127
 1278SOL     OW 3968   0.981   3.778   1.173
 1278SOL    HW1 3969   0.996   3.840   1.103
 1278SOL    HW2 3970   0.978   3.692   1.130
 1279SOL     OW 3971   0.742   0.003   0.329
 1279SOL    HW1 3972   0.806  -0.029   0.392
 1279SOL    HW2 3973   0.677   0.049   0.382
 1280SOL     OW 3974   1.358   3.717   0.138
 1280SOL    HW1 3975   1.360   3.717   0.234
 1280SOL    HW2 3976   1.416   3.790   0.114
 1281SOL     OW 3977   1.329   4.182   0.694
 1281SOL    HW1 3978   1.274   4.260   0.700
 1281SOL    HW2 3979   1.312   4.134   0.775
 1282SOL     OW 3980   1.590   3.946   0.902
 1282SOL    HW1 3981   1.528   3.983   0.965
 1282SOL    HW2 3982   1.600   4.015   0.836
 1283SOL     OW 3983   0.070   4.748   0.271
 1283SOL    HW1 3984   0.021   4.707   0.343
 1283SOL    HW2 3985   0.014   4.738   0.195
 1284SOL     OW 3986   0.260   4.378   1.952
 1284SOL    HW1 3987   0.283   4.459   1.907
 1284SOL    HW2 3988   0.221   4.323   1.884
 1285SOL     OW 3989   0.235   3.927   2.843
 1285SOL    HW1 3990   0.234   4.023   2.844
 1285SOL    HW2 3991   0.144   3.902   2.827
 1286SOL     OW 3992   4.963   4.163   2.501
 1286SOL    HW1 3993   5.044   4.129   2.539
 1286SOL    HW2 3994   4.970   4.145   2.408
 1287SOL     OW 3995   1.107   4.434   2.543
 1287SOL    HW1 3996   1.177   4.500   2.542
 1287SOL    HW2 3997   1.153   4.350   2.544
 1288SOL     OW 3998   1.759   4.319   2.071
 1288SOL    HW1 3999   1.738   4.267   2.148
 1288SOL    HW2 4000   1.793   4.401   2.106
 1289SOL     OW 4001   0.775   4.873   2.904
 1289SOL    HW1 4002   0.722   4.889   2.982
 1289SOL    HW2 4003   0.728   4.804   2.857
 1290SOL     OW 4004   0.870   4.498   3.669
 1290SOL    HW1 4005   0.825   4.574   3.706
 1290SOL    HW2 4006   0.899   4.527   3.583
 1291SOL     OW 4007   0.675   4.716   2.491
 1291SOL    HW1 4008   0.740   4.702   2.560
 1291SOL    HW2 4009   0.608   4.771   2.532
 1292SOL     OW 4010   0.761   4.874   3.709
 1292SOL    HW1 4011   0.784   4.920   3.789
 1292SOL    HW2 4012   0.746   4.944   3.645
 1293SOL     OW 4013   0.437   4.056   3.342
 1293SOL    HW1 4014   0.525   4.028   3.368
 1293SOL    HW2 4015   0.425   4.018   3.255
 1294SOL     OW 4016   1.581   4.159   2.586
 1294SOL    HW1 4017   1.554   4.215   2.658
 1294SOL    HW2 4018   1.581   4.217   2.509
 1295SOL     OW 4019   0.206   4.777   2.744
 1295SOL    HW1 4020   0.171   4.845   2.802
 1295SOL    HW2 4021   0.195   4.813   2.656
 1296SOL     OW 4022   0.583   4.679   1.956
 1296SOL    HW1 4023   0.632   4.752   1.919
 1296SOL    HW2 4024   0.645   4.606   1.958
 1297SOL     OW 4025   1.606   3.820   3.313
 1297SOL    HW1 4026   1.688   3.869   3.302
 1297SOL    HW2 4027   1.572   3.850   3.397
 1298SOL     OW 4028   0.204   4.383   2.415
 1298SOL    HW1 4029   0.262   4.309   2.435
 1298SOL    HW2 4030   0.140   4.346   2.354
 1299SOL     OW 4031   1.697   4.636   2.450
 1299SOL    HW1 4032   1.742   4.680   2.522
 1299SOL    HW2 4033   1.633   4.579   2.492
 1300SOL     OW 4034   1.646   4.858   2.303
 1300SOL    HW1 4035   1.669   4.778   2.349
 1300SOL    HW2 4036   1.694   4.927   2.349
 1301SOL     OW 4037   0.128   4.442   3.495
 1301SOL    HW1 4038   0.109   4.533   3.518
 1301SOL    HW2 4039   0.077   4.426   3.415
 1302SOL     OW 4040   1.311   5.000   3.282
 1302SOL    HW1 4041   1.389   5.034   3.239
 1302SOL    HW2 4042   1.288   4.922   3.232
 1303SOL     OW 4043   0.826   3.713   2.382
 1303SOL    HW1 4044   0.860   3.698   2.470
 1303SOL    HW2 4045   0.736   3.741   2.396
 1304SOL     OW 4046   0.191   4.699   3.098
 1304SOL    HW1 4047   0.266   4.639   3.108
 1304SOL    HW2 4048   0.228   4.776   3.055
 1305SOL     OW 4049   1.570   4.732   2.047
 1305SOL    HW1 4050   1.570   4.772   2.134
 1305SOL    HW2 4051   1.492   4.678   2.045
 1306SOL     OW 4052   0.345   3.964   3.661
 1306SOL    HW1 4053   0.310   3.960   3.750
 1306SOL    HW2 4054   0.308   4.045   3.624
 1307SOL     OW 4055   0.622   4.419   2.150
 1307SOL    HW1 4056   0.560   4.455   2.213
 1307SOL    HW2 4057   0.575   4.348   2.106
 1308SOL     OW 4058   1.268   4.080   2.791
 1308SOL    HW1 4059   1.296   4.162   2.833
 1308SOL    HW2 4060   1.333   4.015   2.817
 1309SOL     OW 4061   0.814   4.253   3.334
 1309SOL    HW1 4062   0.902   4.241   3.369
 1309SOL    HW2 4063   0.756   4.242   3.410
 1310SOL     OW 4064   1.335   4.212   3.570
 1310SOL    HW1 4065   1.386   4.243   3.645
 1310SOL    HW2 4066   1.383   4.242   3.494
 1311SOL     OW 4067   0.952   4.580   3.416
 1311SOL    HW1 4068   0.976   4.664   3.455
 1311SOL    HW2 4069   0.958   4.595   3.322
 1312SOL     OW 4070   1.009   4.150   3.104
 1312SOL    HW1 4071   0.937   4.095   3.137
 1312SOL    HW2 4072   0.997   4.234   3.147
 1313SOL     OW 4073   1.047   4.432   2.271
 1313SOL    HW1 4074   1.052   4.440   2.366
 1313SOL    HW2 4075   1.013   4.517   2.242
 1314SOL     OW 4076   0.052   4.540   2.591
 1314SOL    HW1 4077   0.062   4.630   2.562
 1314SOL    HW2 4078   0.112   4.490   2.536
 1315SOL     OW 4079   0.878   4.046   2.090
 1315SOL    HW1 4080   0.857   4.127   2.137
 1315SOL    HW2 4081   0.798   4.022   2.045
 1316SOL     OW 4082   1.752   4.269   3.677
 1316SOL    HW1 4083   1.751   4.313   3.761
 1316SOL    HW2 4084   1.719   4.335   3.615
 1317SOL     OW 4085   1.401   4.863   2.429
 1317SOL    HW1 4086   1.430   4.885   2.517
 1317SOL    HW2 4087   1.481   4.862   2.376
 1318SOL     OW 4088   0.493   3.897   2.750
 1318SOL    HW1 4089   0.407   3.914   2.787
 1318SOL    HW2 4090   0.524   3.982   2.720
 1319SOL     OW 4091   1.808   4.768   2.663
 1319SOL    HW1 4092   1.769   4.783   2.749
 1319SOL    HW2 4093   1.870   4.697   2.677
 1320SOL     OW 4094   0.312   4.665   2.124
 1320SOL    HW1 4095   0.344   4.739   2.073
 1320SOL    HW2 4096   0.280   4.603   2.058
 1321SOL     OW 4097   1.495   4.489   2.579
 1321SOL    HW1 4098   1.494   4.459   2.669
 1321SOL    HW2 4099   1.416   4.543   2.571
 1322SOL     OW 4100   0.175   4.002   3.380
 1322SOL    HW1 4101   0.269   4.016   3.369
 1322SOL    HW2 4102   0.134   4.072   3.329
 1323SOL     OW 4103   1.391   3.805   2.311
 1323SOL    HW1 4104   1.465   3.864   2.319
 1323SOL    HW2 4105   1.388   3.781   2.218
 1324SOL     OW 4106   0.427   4.514   2.319
 1324SOL    HW1 4107   0.356   4.468   2.362
 1324SOL    HW2 4108   0.385   4.562   2.248
 1325SOL     OW 4109   1.554   3.903   3.578
 1325SOL    HW1 4110   1.527   3.961   3.649
 1325SOL    HW2 4111   1.513   3.819   3.599
 1326SOL     OW 4112   0.618   3.868   2.001
 1326SOL    HW1 4113   0.664   3.905   1.926
 1326SOL    HW2 4114   0.573   3.791   1.966
 1327SOL     OW 4115   0.794   4.007   3.658
 1327SOL    HW1 4116   0.883   4.022   3.629
 1327SOL    HW2 4117   0.747   4.087   3.637
 1328SOL     OW 4118   1.430   4.292   3.310
 1328SOL    HW1 4119   1.518   4.262   3.286
 1328SOL    HW2 4120   1.372   4.245   3.250
 1329SOL     OW 4121   0.921   4.253   2.798
 1329SOL    HW1 4122   0.946   4.173   2.844
 1329SOL    HW2 4123   0.910   4.225   2.707
 1330SOL     OW 4124   0.573   3.815   2.418
 1330SOL    HW1 4125   0.487   3.810   2.459
 1330SOL    HW2 4126   0.564   3.885   2.353
 1331SOL     OW 4127   0.293   3.736   2.046
 1331SOL    HW1 4128   0.231   3.708   2.113
 1331SOL    HW2 4129   0.378   3.706   2.078
 1332SOL     OW 4130   0.950   3.959   2.343
 1332SOL    HW1 4131   0.925   3.989   2.255
 1332SOL    HW2 4132   0.906   3.875   2.352
 1333SOL     OW 4133   1.121   4.389   3.292
 1333SOL    HW1 4134   1.165   4.315   3.333
 1333SOL    HW2 4135   1.073   4.431   3.363
 1334SOL     OW 4136   0.493   4.873   2.617
 1334SOL    HW1 4137   0.470   4.873   2.710
 1334SOL    HW2 4138   0.440   4.943   2.580
 1335SOL     OW 4139   1.023   4.298   1.888
 1335SOL    HW1 4140   1.081   4.281   1.962
 1335SOL    HW2 4141   0.954   4.233   1.895
 1336SOL     OW 4142   0.057   4.221   3.286
 1336SOL    HW1 4143  -0.021   4.274   3.271
 1336SOL    HW2 4144   0.126   4.264   3.236
 1337SOL     OW 4145   0.627   3.934   3.061
 1337SOL    HW1 4146   0.532   3.931   3.070
 1337SOL    HW2 4147   0.648   3.871   2.993
 1338SOL     OW 4148   0.867   4.160   2.537
 1338SOL    HW1 4149   0.835   4.232   2.482
 1338SOL    HW2 4150   0.894   4.092   2.475
 1339SOL     OW 4151   0.998   3.720   2.626
 1339SOL    HW1 4152   1.079   3.710   2.576
 1339SOL    HW2 4153   1.011   3.802   2.675
 1340SOL     OW 4154   1.475   4.888   2.693
 1340SOL    HW1 4155   1.534   4.848   2.757
 1340SOL    HW2 4156   1.486   4.983   2.706
 1341SOL     OW 4157   1.511   4.250   2.846
 1341SOL    HW1 4158   1.559   4.305   2.908
 1341SOL    HW2 4159   1.513   4.163   2.885
 1342SOL     OW 4160   1.846   4.531   2.236
 1342SOL    HW1 4161   1.789   4.564   2.306
 1342SOL    HW2 4162   1.875   4.610   2.191
 1343SOL     OW 4163   1.384   4.306   1.974
 1343SOL    HW1 4164   1.310   4.270   2.024
 1343SOL    HW2 4165   1.385   4.255   1.893
 1344SOL     OW 4166   0.542   4.012   2.223
 1344SOL    HW1 4167   0.519   4.091   2.176
 1344SOL    HW2 4168   0.570   3.950   2.156
 1345SOL     OW 4169   1.795   4.952   3.498
 1345SOL    HW1 4170   1.755   4.979   3.580
 1345SOL    HW2 4171   1.754   4.868   3.478
 1346SOL     OW 4172   1.700   4.811   2.922
 1346SOL    HW1 4173   1.791   4.815   2.952
 1346SOL    HW2 4174   1.654   4.873   2.978
 1347SOL     OW 4175   0.944   3.785   3.255
 1347SOL    HW1 4176   1.012   3.843   3.288
 1347SOL    HW2 4177   0.950   3.793   3.160
 1348SOL     OW 4178   0.992   4.802   3.574
 1348SOL    HW1 4179   0.908   4.816   3.617
 1348SOL    HW2 4180   1.030   4.889   3.567
 1349SOL     OW 4181   0.701   4.764   2.217
 1349SOL    HW1 4182   0.685   4.740   2.308
 1349SOL    HW2 4183   0.638   4.712   2.167
 1350SOL     OW 4184   0.413   4.539   3.095
 1350SOL    HW1 4185   0.499   4.566   3.126
 1350SOL    HW2 4186   0.422   4.533   3.000
 1351SOL     OW 4187   1.287   4.141   3.133
 1351SOL    HW1 4188   1.323   4.063   3.092
 1351SOL    HW2 4189   1.193   4.135   3.120
 1352SOL     OW 4190   0.325   4.806   2.358
 1352SOL    HW1 4191   0.381   4.754   2.416
 1352SOL    HW2 4192   0.337   4.766   2.272
 1353SOL     OW 4193   0.580   4.178   2.678
 1353SOL    HW1 4194   0.580   4.227   2.760
 1353SOL    HW2 4195   0.665   4.197   2.639
 1354SOL     OW 4196   1.547   4.322   2.355
 1354SOL    HW1 4197   1.526   4.387   2.422
 1354SOL    HW2 4198   1.531   4.368   2.272
 1355SOL     OW 4199   0.431   4.447   3.445
 1355SOL    HW1 4200   0.352   4.474   3.492
 1355SOL    HW2 4201   0.401   4.380   3.384
 1356SOL     OW 4202   1.632   4.490   3.538
 1356SOL    HW1 4203   1.666   4.563   3.486
 1356SOL    HW2 4204   1.543   4.476   3.505
 1357SOL     OW 4205   1.036   3.808   3.625
 1357SOL    HW1 4206   1.054   3.808   3.719
 1357SOL    HW2 4207   0.946   3.776   3.617
 1358SOL     OW 4208   0.517   3.760   3.599
 1358SOL    HW1 4209   0.553   3.768   3.687
 1358SOL    HW2 4210   0.454   3.831   3.592
 1359SOL     OW 4211   0.602   4.633   2.867
 1359SOL    HW1 4212   0.646   4.551   2.888
 1359SOL    HW2 4213   0.517   4.607   2.832
 1360SOL     OW 4214   1.313   4.622   2.861
 1360SOL    HW1 4215   1.235   4.566   2.860
 1360SOL    HW2 4216   1.315   4.662   2.774
 1361SOL     OW 4217   1.165   4.235   2.116
 1361SOL    HW1 4218   1.126   4.297   2.177
 1361SOL    HW2 4219   1.182   4.157   2.168
 1362SOL     OW 4220   0.358   3.950   3.104
 1362SOL    HW1 4221   0.323   4.000   3.030
 1362SOL    HW2 4222   0.305   3.870   3.105
 1363SOL     OW 4223   0.047   0.036   3.148
 1363SOL    HW1 4224   0.081  -0.024   3.214
 1363SOL    HW2 4225  -0.011   0.095   3.196
 1364SOL     OW 4226   0.709   4.386   2.909
 1364SOL    HW1 4227   0.684   4.332   2.983
 1364SOL    HW2 4228   0.788   4.344   2.874
 1365SOL     OW 4229   1.761   4.645   3.743
 1365SOL    HW1 4230   1.799   4.577   3.799
 1365SOL    HW2 4231   1.715   4.597   3.674
 1366SOL     OW 4232   0.279   3.832   2.471
 1366SOL    HW1 4233   0.247   3.761   2.527
 1366SOL    HW2 4234   0.262   3.801   2.382
 1367SOL     OW 4235   1.575   4.026   2.275
 1367SOL    HW1 4236   1.564   4.118   2.297
 1367SOL    HW2 4237   1.563   4.022   2.180
 1368SOL     OW 4238   1.071   4.485   2.825
 1368SOL    HW1 4239   1.073   4.490   2.730
 1368SOL    HW2 4240   1.026   4.402   2.844
 1369SOL     OW 4241   0.332   4.608   3.690
 1369SOL    HW1 4242   0.425   4.591   3.677
 1369SOL    HW2 4243   0.326   4.641   3.780
 1370SOL     OW 4244   1.569   3.974   1.998
 1370SOL    HW1 4245   1.662   3.993   1.991
 1370SOL    HW2 4246   1.539   3.969   1.907
 1371SOL     OW 4247   1.362   4.561   1.890
 1371SOL    HW1 4248   1.279   4.597   1.923
 1371SOL    HW2 4249   1.371   4.477   1.935
 1372SOL     OW 4250   0.342   4.548   2.817
 1372SOL    HW1 4251   0.269   4.486   2.820
 1372SOL    HW2 4252   0.303   4.629   2.785
 1373SOL     OW 4253   0.296   4.186   2.888
 1373SOL    HW1 4254   0.216   4.230   2.919
 1373SOL    HW2 4255   0.316   4.228   2.804
 1374SOL     OW 4256   1.080   4.164   3.473
 1374SOL    HW1 4257   1.157   4.184   3.527
 1374SOL    HW2 4258   1.100   4.079   3.434
 1375SOL     OW 4259   1.145   3.911   3.396
 1375SOL    HW1 4260   1.228   3.863   3.390
 1375SOL    HW2 4261   1.105   3.879   3.476
 1376SOL     OW 4262   4.983   0.104   1.987
 1376SOL    HW1 4263   4.982   0.133   2.078
 1376SOL    HW2 4264   5.013   0.180   1.938
 1377SOL     OW 4265   0.998   4.569   3.130
 1377SOL    HW1 4266   1.049   4.501   3.173
 1377SOL    HW2 4267   1.018   4.559   3.037
 1378SOL     OW 4268   0.059   4.302   2.947
 1378SOL    HW1 4269  -0.030   4.269   2.939
 1378SOL    HW2 4270   0.052   4.397   2.939
 1379SOL     OW 4271   0.187   4.190   3.586
 1379SOL    HW1 4272   0.176   4.281   3.560
 1379SOL    HW2 4273   0.183   4.141   3.504
 1380SOL     OW 4274   1.355   4.642   3.534
 1380SOL    HW1 4275   1.376   4.735   3.541
 1380SOL    HW2 4276   1.370   4.621   3.442
 1381SOL     OW 4277   0.829   4.265   2.240
 1381SOL    HW1 4278   0.906   4.322   2.249
 1381SOL    HW2 4279   0.758   4.324   2.215
 1382SOL     OW 4280   1.687   4.348   3.044
 1382SOL    HW1 4281   1.684   4.295   3.123
 1382SOL    HW2 4282   1.688   4.439   3.075
 1383SOL     OW 4283   0.650   4.208   3.107
 1383SOL    HW1 4284   0.697   4.218   3.190
 1383SOL    HW2 4285   0.643   4.113   3.096
 1384SOL     OW 4286   0.449   4.218   2.060
 1384SOL    HW1 4287   0.407   4.136   2.032
 1384SOL    HW2 4288   0.389   4.287   2.032
 1385SOL     OW 4289   0.160   4.854   3.326
 1385SOL    HW1 4290   0.136   4.809   3.406
 1385SOL    HW2 4291   0.158   4.786   3.258
 1386SOL     OW 4292   1.340   4.776   3.087
 1386SOL    HW1 4293   1.394   4.848   3.054
 1386SOL    HW2 4294   1.325   4.721   3.010
 1387SOL     OW 4295   1.339   4.558   2.233
 1387SOL    HW1 4296   1.310   4.623   2.298
 1387SOL    HW2 4297   1.260   4.511   2.208
 1388SOL     OW 4298   0.107  -0.017   2.886
 1388SOL    HW1 4299   0.077  -0.004   2.976
 1388SOL    HW2 4300   0.118   0.072   2.851
 1389SOL     OW 4301   1.730   3.855   2.431
 1389SOL    HW1 4302   1.821   3.880   2.415
 1389SOL    HW2 4303   1.678   3.919   2.382
 1390SOL     OW 4304   1.266   4.660   2.552
 1390SOL    HW1 4305   1.178   4.698   2.551
 1390SOL    HW2 4306   1.322   4.727   2.513
 1391SOL     OW 4307   1.806   3.893   2.820
 1391SOL    HW1 4308   1.789   3.825   2.884
 1391SOL    HW2 4309   1.872   3.855   2.762
 1392SOL     OW 4310   0.215   4.080   2.568
 1392SOL    HW1 4311   0.291   4.124   2.530
 1392SOL    HW2 4312   0.229   3.987   2.550
 1393SOL     OW 4313   0.795   4.814   3.258
 1393SOL    HW1 4314   0.857   4.767   3.203
 1393SOL    HW2 4315   0.729   4.749   3.281
 1394SOL     OW 4316   0.963   4.681   2.187
 1394SOL    HW1 4317   1.000   4.750   2.242
 1394SOL    HW2 4318   0.869   4.700   2.184
 1395SOL     OW 4319   0.341   0.058   3.353
 1395SOL    HW1 4320   0.410   0.028   3.411
 1395SOL    HW2 4321   0.285  -0.020   3.340
 1396SOL     OW 4322   1.570  -0.023   3.093
 1396SOL    HW1 4323   1.595   0.007   3.180
 1396SOL    HW2 4324   1.535   0.055   3.050
 1397SOL     OW 4325   1.020   4.785   2.528
 1397SOL    HW1 4326   0.962   4.735   2.585
 1397SOL    HW2 4327   0.963   4.852   2.490
 1398SOL     OW 4328   1.024   3.959   2.766
 1398SOL    HW1 4329   1.108   4.002   2.781
 1398SOL    HW2 4330   0.983   4.009   2.695
 1399SOL     OW 4331   1.686   4.161   3.257
 1399SOL    HW1 4332   1.718   4.090   3.203
 1399SOL    HW2 4333   1.689   4.127   3.347
 1400SOL     OW 4334   0.118   4.716   3.561
 1400SOL    HW1 4335   0.196   4.682   3.604
 1400SOL    HW2 4336   0.079   4.776   3.625
 1401SOL     OW 4337   0.684   3.950   3.388
 1401SOL    HW1 4338   0.720   3.933   3.475
 1401SOL    HW2 4339   0.689   3.865   3.343
 1402SOL     OW 4340   0.026   4.088   1.936
 1402SOL    HW1 4341  -0.046   4.058   1.880
 1402SOL    HW2 4342   0.077   4.147   1.881
 1403SOL     OW 4343   1.422   4.588   3.272
 1403SOL    HW1 4344   1.373   4.645   3.213
 1403SOL    HW2 4345   1.385   4.501   3.259
 1404SOL     OW 4346   0.033   3.868   2.144
 1404SOL    HW1 4347   0.018   3.959   2.172
 1404SOL    HW2 4348   0.034   3.873   2.048
 1405SOL     OW 4349   0.632   4.588   3.310
 1405SOL    HW1 4350   0.704   4.525   3.321
 1405SOL    HW2 4351   0.559   4.550   3.359
 1406SOL     OW 4352   0.714   4.264   3.603
 1406SOL    HW1 4353   0.789   4.303   3.649
 1406SOL    HW2 4354   0.650   4.335   3.597
 1407SOL     OW 4355   1.427   4.906   3.530
 1407SOL    HW1 4356   1.462   4.983   3.575
 1407SOL    HW2 4357   1.393   4.940   3.447
 1408SOL     OW 4358   1.663   4.611   3.138
 1408SOL    HW1 4359   1.577   4.612   3.181
 1408SOL    HW2 4360   1.653   4.670   3.064
 1409SOL     OW 4361   1.211   4.022   2.280
 1409SOL    HW1 4362   1.124   3.997   2.311
 1409SOL    HW2 4363   1.265   3.944   2.295
 1410SOL     OW 4364   0.661   4.432   2.492
 1410SOL    HW1 4365   0.670   4.527   2.486
 1410SOL    HW2 4366   0.580   4.412   2.445
 1411SOL     OW 4367   1.789   4.009   3.477
 1411SOL    HW1 4368   1.847   4.027   3.551
 1411SOL    HW2 4369   1.711   3.971   3.516
 1412SOL     OW 4370   1.747   4.698   3.396
 1412SOL    HW1 4371   1.828   4.648   3.409
 1412SOL    HW2 4372   1.724   4.683   3.305
 1413SOL     OW 4373   0.852   4.649   2.695
 1413SOL    HW1 4374   0.887   4.669   2.781
 1413SOL    HW2 4375   0.808   4.565   2.706
 1414SOL     OW 4376   1.127   4.678   1.962
 1414SOL    HW1 4377   1.064   4.673   2.033
 1414SOL    HW2 4378   1.098   4.751   1.908
 1415SOL     OW 4379   0.074   4.913   2.510
 1415SOL    HW1 4380  -0.011   4.889   2.548
 1415SOL    HW2 4381   0.070   4.880   2.421
 1416SOL     OW 4382   1.809   3.940   3.134
 1416SOL    HW1 4383   1.880   3.971   3.077
 1416SOL    HW2 4384   1.798   3.848   3.110
 1417SOL     OW 4385   0.426   4.198   2.445
 1417SOL    HW1 4386   0.467   4.144   2.378
 1417SOL    HW2 4387   0.486   4.194   2.520
 1418SOL     OW 4388   0.315   4.311   3.211
 1418SOL    HW1 4389   0.379   4.243   3.189
 1418SOL    HW2 4390   0.346   4.389   3.166
 1419SOL     OW 4391   1.431   3.936   3.007
 1419SOL    HW1 4392   1.475   3.889   3.078
 1419SOL    HW2 4393   1.478   3.909   2.928
 1420SOL     OW 4394   0.952   3.784   2.979
 1420SOL    HW1 4395   0.861   3.765   2.957
 1420SOL    HW2 4396   0.979   3.849   2.914
 1421SOL     OW 4397   0.785   0.023   2.155
 1421SOL    HW1 4398   0.713   0.069   2.198
 1421SOL    HW2 4399   0.759  -0.069   2.158
 1422SOL     OW 4400   1.363   3.768   2.038
 1422SOL    HW1 4401   1.422   3.842   2.024
 1422SOL    HW2 4402   1.372   3.714   1.960
 1423SOL     OW 4403   1.268   4.217   2.550
 1423SOL    HW1 4404   1.328   4.177   2.488
 1423SOL    HW2 4405   1.267   4.158   2.625
 1424SOL     OW 4406   1.545   3.941   2.753
 1424SOL    HW1 4407   1.637   3.922   2.769
 1424SOL    HW2 4408   1.546   4.003   2.679
 1425SOL     OW 4409   0.055   4.788   2.267
 1425SOL    HW1 4410   0.150   4.781   2.276
 1425SOL    HW2 4411   0.037   4.759   2.177
 1426SOL     OW 4412   0.239   4.321   3.875
 1426SOL    HW1 4413   0.153   4.319   3.918
 1426SOL    HW2 4414   0.230   4.388   3.807
 1427SOL     OW 4415   0.223   3.958   4.677
 1427SOL    HW1 4416   0.255   3.975   4.766
 1427SOL    HW2 4417   0.190   3.868   4.680
 1428SOL     OW 4418   4.955   4.094   4.288
 1428SOL    HW1 4419   4.982   4.186   4.287
 1428SOL    HW2 4420   5.022   4.049   4.339
 1429SOL     OW 4421   1.140   4.401   4.454
 1429SOL    HW1 4422   1.163   4.423   4.544
 1429SOL    HW2 4423   1.068   4.337   4.463
 1430SOL     OW 4424   1.760   4.389   3.919
 1430SOL    HW1 4425   1.845   4.347   3.934
 1430SOL    HW2 4426   1.757   4.460   3.984
 1431SOL     OW 4427   0.821   4.855   4.729
 1431SOL    HW1 4428   0.882   4.903   4.784
 1431SOL    HW2 4429   0.754   4.823   4.790
 1432SOL     OW 4430   0.658   4.712   4.405
 1432SOL    HW1 4431   0.599   4.762   4.460
 1432SOL    HW2 4432   0.672   4.767   4.328
 1433SOL     OW 4433   1.598   4.132   4.505
 1433SOL    HW1 4434   1.522   4.154   4.451
 1433SOL    HW2 4435   1.673   4.150   4.449
 1434SOL     OW 4436   0.197   4.806   4.541
 1434SOL    HW1 4437   0.139   4.857   4.484
 1434SOL    HW2 4438   0.180   4.715   4.517
 1435SOL     OW 4439   0.597   4.656   3.815
 1435SOL    HW1 4440   0.647   4.734   3.790
 1435SOL    HW2 4441   0.520   4.691   3.859
 1436SOL     OW 4442   0.116   4.330   4.296
 1436SOL    HW1 4443   0.175   4.261   4.325
 1436SOL    HW2 4444   0.162   4.373   4.224
 1437SOL     OW 4445   1.715   4.615   4.354
 1437SOL    HW1 4446   1.784   4.581   4.412
 1437SOL    HW2 4447   1.636   4.572   4.384
 1438SOL     OW 4448   1.618   4.847   4.120
 1438SOL    HW1 4449   1.583   4.814   4.202
 1438SOL    HW2 4450   1.651   4.934   4.141
 1439SOL     OW 4451   0.808   3.726   4.266
 1439SOL    HW1 4452   0.714   3.742   4.258
 1439SOL    HW2 4453   0.829   3.670   4.191
 1440SOL     OW 4454   0.234   4.691   4.986
 1440SOL    HW1 4455   0.203   4.766   5.037
 1440SOL    HW2 4456   0.155   4.652   4.950
 1441SOL     OW 4457   1.533   4.728   3.892
 1441SOL    HW1 4458   1.615   4.714   3.845
 1441SOL    HW2 4459   1.558   4.771   3.974
 1442SOL     OW 4460   0.577   4.473   4.024
 1442SOL    HW1 4461   0.656   4.420   4.038
 1442SOL    HW2 4462   0.598   4.528   3.949
 1443SOL     OW 4463   1.275   4.023   4.634
 1443SOL    HW1 4464   1.312   4.029   4.722
 1443SOL    HW2 4465   1.338   3.970   4.585
 1444SOL     OW 4466   1.052   4.396   4.129
 1444SOL    HW1 4467   1.044   4.369   4.221
 1444SOL    HW2 4468   1.127   4.456   4.128
 1445SOL     OW 4469   0.113   4.546   4.480
 1445SOL    HW1 4470   0.022   4.541   4.508
 1445SOL    HW2 4471   0.121   4.479   4.412
 1446SOL     OW 4472   0.872   4.056   3.927
 1446SOL    HW1 4473   0.928   4.129   3.898
 1446SOL    HW2 4474   0.824   4.030   3.848
 1447SOL     OW 4475   1.370   4.889   4.320
 1447SOL    HW1 4476   1.390   4.905   4.412
 1447SOL    HW2 4477   1.333   4.801   4.319
 1448SOL     OW 4478   0.593   3.941   4.614
 1448SOL    HW1 4479   0.522   3.959   4.675
 1448SOL    HW2 4480   0.614   4.026   4.576
 1449SOL     OW 4481   1.801   4.804   4.628
 1449SOL    HW1 4482   1.894   4.789   4.611
 1449SOL    HW2 4483   1.763   4.819   4.542
 1450SOL     OW 4484   0.357   4.707   3.944
 1450SOL    HW1 4485   0.326   4.657   4.019
 1450SOL    HW2 4486   0.331   4.797   3.962
 1451SOL     OW 4487   1.494   4.470   4.435
 1451SOL    HW1 4488   1.415   4.522   4.426
 1451SOL    HW2 4489   1.496   4.415   4.357
 1452SOL     OW 4490   1.417   3.825   4.178
 1452SOL    HW1 4491   1.347   3.890   4.169
 1452SOL    HW2 4492   1.427   3.788   4.090
 1453SOL     OW 4493   0.367   4.439   4.194
 1453SOL    HW1 4494   0.431   4.453   4.125
 1453SOL    HW2 4495   0.413   4.463   4.275
 1454SOL     OW 4496   0.647   3.841   3.834
 1454SOL    HW1 4497   0.725   3.807   3.878
 1454SOL    HW2 4498   0.681   3.900   3.767
 1455SOL     OW 4499   0.956   4.212   4.588
 1455SOL    HW1 4500   0.992   4.133   4.629
 1455SOL    HW2 4501   0.882   4.237   4.643
 1456SOL     OW 4502   0.541   3.768   4.216
 1456SOL    HW1 4503   0.472   3.771   4.282
 1456SOL    HW2 4504   0.530   3.850   4.167
 1457SOL     OW 4505   0.274   3.710   3.873
 1457SOL    HW1 4506   0.228   3.703   3.957
 1457SOL    HW2 4507   0.364   3.684   3.892
 1458SOL     OW 4508   0.947   3.968   4.182
 1458SOL    HW1 4509   0.918   3.989   4.093
 1458SOL    HW2 4510   0.903   3.887   4.204
 1459SOL     OW 4511   0.480   4.857   4.565
 1459SOL    HW1 4512   0.493   4.952   4.571
 1459SOL    HW2 4513   0.385   4.847   4.555
 1460SOL     OW 4514   0.970   4.268   3.785
 1460SOL    HW1 4515   1.060   4.271   3.817
 1460SOL    HW2 4516   0.953   4.357   3.754
 1461SOL     OW 4517   0.917   4.216   4.315
 1461SOL    HW1 4518   0.915   4.203   4.409
 1461SOL    HW2 4519   0.921   4.128   4.278
 1462SOL     OW 4520   0.989   3.776   4.471
 1462SOL    HW1 4521   0.918   3.772   4.407
 1462SOL    HW2 4522   1.068   3.756   4.420
 1463SOL     OW 4523   1.401   4.854   4.593
 1463SOL    HW1 4524   1.376   4.903   4.671
 1463SOL    HW2 4525   1.425   4.767   4.625
 1464SOL     OW 4526   1.459   4.351   4.685
 1464SOL    HW1 4527   1.485   4.384   4.599
 1464SOL    HW2 4528   1.490   4.261   4.687
 1465SOL     OW 4529   1.827   4.583   4.104
 1465SOL    HW1 4530   1.885   4.520   4.147
 1465SOL    HW2 4531   1.770   4.614   4.175
 1466SOL     OW 4532   1.433   4.309   3.829
 1466SOL    HW1 4533   1.519   4.322   3.868
 1466SOL    HW2 4534   1.399   4.397   3.814
 1467SOL     OW 4535   0.512   3.980   4.037
 1467SOL    HW1 4536   0.528   4.066   3.999
 1467SOL    HW2 4537   0.547   3.919   3.972
 1468SOL     OW 4538   1.598   4.809   4.829
 1468SOL    HW1 4539   1.622   4.884   4.883
 1468SOL    HW2 4540   1.660   4.810   4.757
 1469SOL     OW 4541   0.710   4.782   4.116
 1469SOL    HW1 4542   0.630   4.729   4.111
 1469SOL    HW2 4543   0.778   4.726   4.078
 1470SOL     OW 4544   0.412   4.482   4.996
 1470SOL    HW1 4545   0.356   4.557   4.976
 1470SOL    HW2 4546   0.405   4.425   4.920
 1471SOL     OW 4547   0.341   4.866   4.202
 1471SOL    HW1 4548   0.427   4.907   4.216
 1471SOL    HW2 4549   0.281   4.921   4.252
 1472SOL     OW 4550   0.619   4.225   4.556
 1472SOL    HW1 4551   0.637   4.275   4.635
 1472SOL    HW2 4552   0.600   4.291   4.489
 1473SOL     OW 4553   1.583   4.360   4.194
 1473SOL    HW1 4554   1.677   4.371   4.210
 1473SOL    HW2 4555   1.575   4.274   4.153
 1474SOL     OW 4556   0.537   4.659   4.752
 1474SOL    HW1 4557   0.532   4.693   4.841
 1474SOL    HW2 4558   0.529   4.736   4.696
 1475SOL     OW 4559   1.304   4.582   4.680
 1475SOL    HW1 4560   1.218   4.561   4.718
 1475SOL    HW2 4561   1.359   4.507   4.703
 1476SOL     OW 4562   1.193   4.219   3.963
 1476SOL    HW1 4563   1.155   4.287   4.018
 1476SOL    HW2 4564   1.273   4.258   3.929
 1477SOL     OW 4565   0.287   3.969   4.941
 1477SOL    HW1 4566   0.324   3.912   5.008
 1477SOL    HW2 4567   0.210   4.007   4.983
 1478SOL     OW 4568   0.071   0.045   4.978
 1478SOL    HW1 4569   0.150   0.030   5.028
 1478SOL    HW2 4570   0.058   0.140   4.981
 1479SOL     OW 4571   0.793   4.311   4.801
 1479SOL    HW1 4572   0.767   4.397   4.835
 1479SOL    HW2 4573   0.749   4.248   4.860
 1480SOL     OW 4574   0.266   3.803   4.312
 1480SOL    HW1 4575   0.289   3.753   4.390
 1480SOL    HW2 4576   0.241   3.890   4.345
 1481SOL     OW 4577   1.568   4.096   4.099
 1481SOL    HW1 4578   1.488   4.071   4.145
 1481SOL    HW2 4579   1.634   4.035   4.131
 1482SOL     OW 4580   1.041   4.497   4.708
 1482SOL    HW1 4581   0.989   4.555   4.653
 1482SOL    HW2 4582   0.984   4.423   4.725
 1483SOL     OW 4583   1.486   4.012   3.835
 1483SOL    HW1 4584   1.545   4.021   3.910
 1483SOL    HW2 4585   1.442   4.097   3.829
 1484SOL     OW 4586   1.340   4.570   3.794
 1484SOL    HW1 4587   1.408   4.630   3.825
 1484SOL    HW2 4588   1.338   4.584   3.699
 1485SOL     OW 4589   0.321   4.502   4.680
 1485SOL    HW1 4590   0.401   4.552   4.694
 1485SOL    HW2 4591   0.295   4.523   4.590
 1486SOL     OW 4592   0.367   4.265   4.805
 1486SOL    HW1 4593   0.283   4.223   4.819
 1486SOL    HW2 4594   0.350   4.333   4.739
 1487SOL     OW 4595   1.169   3.974   0.180
 1487SOL    HW1 4596   1.077   3.996   0.185
 1487SOL    HW2 4597   1.173   3.881   0.203
 1488SOL     OW 4598   4.915   0.086   3.860
 1488SOL    HW1 4599   4.957   0.163   3.821
 1488SOL    HW2 4600   4.972   0.013   3.835
 1489SOL     OW 4601   0.969   4.551   0.046
 1489SOL    HW1 4602   1.021   4.482   0.005
 1489SOL    HW2 4603   0.954   4.521   0.136
 1490SOL     OW 4604   0.085   4.278   4.883
 1490SOL    HW1 4605   0.122   4.311   4.966
 1490SOL    HW2 4606   0.052   4.357   4.839
 1491SOL     OW 4607   0.793   4.318   4.053
 1491SOL    HW1 4608   0.878   4.327   4.098
 1491SOL    HW2 4609   0.796   4.231   4.014
 1492SOL     OW 4610   1.667   4.314   4.988
 1492SOL    HW1 4611   1.573   4.294   4.993
 1492SOL    HW2 4612   1.671   4.407   4.965
 1493SOL     OW 4613   0.675   4.155   0.000
 1493SOL    HW1 4614   0.619   4.198   0.065
 1493SOL    HW2 4615   0.623   4.080  -0.030
 1494SOL     OW 4616   0.518   4.209   3.900
 1494SOL    HW1 4617   0.504   4.298   3.932
 1494SOL    HW2 4618   0.486   4.211   3.810
 1495SOL     OW 4619   1.334   4.916   4.900
 1495SOL    HW1 4620   1.410   4.859   4.889
 1495SOL    HW2 4621   1.265   4.858   4.932
 1496SOL     OW 4622   1.280   4.532   4.074
 1496SOL    HW1 4623   1.365   4.545   4.115
 1496SOL    HW2 4624   1.293   4.559   3.983
 1497SOL     OW 4625   0.127   0.037   4.702
 1497SOL    HW1 4626   0.100   0.026   4.793
 1497SOL    HW2 4627   0.147  -0.051   4.671
 1498SOL     OW 4628   1.745   3.917   4.206
 1498SOL    HW1 4629   1.716   3.836   4.249
 1498SOL    HW2 4630   1.776   3.972   4.278
 1499SOL     OW 4631   1.259   4.643   4.402
 1499SOL    HW1 4632   1.271   4.658   4.495
 1499SOL    HW2 4633   1.209   4.562   4.397
 1500SOL     OW 4634   1.839   3.904   4.686
 1500SOL    HW1 4635   1.846   3.979   4.627
 1500SOL    HW2 4636   1.750   3.871   4.672
 1501SOL     OW 4637   0.201   4.048   4.421
 1501SOL    HW1 4638   0.283   4.087   4.392
 1501SOL    HW2 4639   0.213   4.034   4.515
 1502SOL     OW 4640   0.843   4.804   0.063
 1502SOL    HW1 4641   0.878   4.715   0.061
 1502SOL    HW2 4642   0.749   4.793   0.071
 1503SOL     OW 4643   0.891   4.623   4.001
 1503SOL    HW1 4644   0.961   4.650   3.942
 1503SOL    HW2 4645   0.911   4.531   4.021
 1504SOL     OW 4646   1.610   0.025   0.010
 1504SOL    HW1 4647   1.553   0.050   0.083
 1504SOL    HW2 4648   1.584   0.084  -0.061
 1505SOL     OW 4649   1.027   4.829   4.373
 1505SOL    HW1 4650   0.987   4.765   4.431
 1505SOL    HW2 4651   1.108   4.787   4.344
 1506SOL     OW 4652   1.022   3.942   4.691
 1506SOL    HW1 4653   1.113   3.970   4.674
 1506SOL    HW2 4654   0.999   3.891   4.614
 1507SOL     OW 4655   1.771   4.086   0.095
 1507SOL    HW1 4656   1.838   4.129   0.149
 1507SOL    HW2 4657   1.731   4.158   0.046
 1508SOL     OW 4658   0.019   4.077   3.767
 1508SOL    HW1 4659   0.065   4.013   3.822
 1508SOL    HW2 4660   0.088   4.120   3.717
 1509SOL     OW 4661   0.021   3.846   4.023
 1509SOL    HW1 4662   0.091   3.912   4.020
 1509SOL    HW2 4663   0.029   3.806   4.109
 1510SOL     OW 4664   1.670   4.583   4.969
 1510SOL    HW1 4665   1.689   4.632   5.049
 1510SOL    HW2 4666   1.637   4.650   4.907
 1511SOL     OW 4667   1.223   4.024   4.165
 1511SOL    HW1 4668   1.209   4.085   4.092
 1511SOL    HW2 4669   1.136   3.993   4.187
 1512SOL     OW 4670   0.599   4.443   4.369
 1512SOL    HW1 4671   0.623   4.534   4.386
 1512SOL    HW2 4672   0.670   4.410   4.312
 1513SOL     OW 4673   1.716   4.702   0.219
 1513SOL    HW1 4674   1.810   4.717   0.230
 1513SOL    HW2 4675   1.701   4.616   0.259
 1514SOL     OW 4676   0.890   4.666   4.550
 1514SOL    HW1 4677   0.870   4.731   4.617
 1514SOL    HW2 4678   0.810   4.660   4.498
 1515SOL     OW 4679   1.085   4.687   3.820
 1515SOL    HW1 4680   1.172   4.648   3.812
 1515SOL    HW2 4681   1.062   4.715   3.731
 1516SOL     OW 4682   5.010   4.932   4.384
 1516SOL    HW1 4683   4.928   4.882   4.391
 1516SOL    HW2 4684   4.983   5.023   4.391
 1517SOL     OW 4685   1.888   3.861   4.959
 1517SOL    HW1 4686   1.849   3.938   5.002
 1517SOL    HW2 4687   1.858   3.867   4.868
 1518SOL     OW 4688   0.394   4.159   4.259
 1518SOL    HW1 4689   0.404   4.248   4.228
 1518SOL    HW2 4690   0.448   4.106   4.200
 1519SOL     OW 4691   1.371   4.000   4.890
 1519SOL    HW1 4692   1.454   3.976   4.933
 1519SOL    HW2 4693   1.304   3.961   4.946
 1520SOL     OW 4694   1.015   3.725   4.874
 1520SOL    HW1 4695   0.983   3.750   4.961
 1520SOL    HW2 4696   1.020   3.807   4.826
 1521SOL     OW 4697   0.748   0.012   3.961
 1521SOL    HW1 4698   0.818   0.053   4.013
 1521SOL    HW2 4699   0.724  -0.066   4.012
 1522SOL     OW 4700   1.383   3.757   3.890
 1522SOL    HW1 4701   1.288   3.763   3.891
 1522SOL    HW2 4702   1.413   3.844   3.864
 1523SOL     OW 4703   1.360   4.157   4.374
 1523SOL    HW1 4704   1.300   4.169   4.448
 1523SOL    HW2 4705   1.307   4.116   4.306
 1524SOL     OW 4706   1.578   3.869   4.562
 1524SOL    HW1 4707   1.581   3.963   4.546
 1524SOL    HW2 4708   1.589   3.830   4.476
 1525SOL     OW 4709   0.056   4.804   4.048
 1525SOL    HW1 4710   0.094   4.816   4.135
 1525SOL    HW2 4711  -0.038   4.797   4.064
 1526SOL     OW 4712   2.033   0.652   0.076
 1526SOL    HW1 4713   2.043   0.652   0.171
 1526SOL    HW2 4714   2.116   0.687   0.043
 1527SOL     OW 4715   2.095   0.260   1.006
 1527SOL    HW1 4716   2.136   0.344   1.022
 1527SOL    HW2 4717   2.097   0.249   0.911
 1528SOL     OW 4718   1.835   0.360   0.580
 1528SOL    HW1 4719   1.767   0.399   0.634
 1528SOL    HW2 4720   1.914   0.362   0.635
 1529SOL     OW 4721   2.381   1.282   1.177
 1529SOL    HW1 4722   2.371   1.267   1.271
 1529SOL    HW2 4723   2.465   1.242   1.156
 1530SOL     OW 4724   3.427   1.518   0.699
 1530SOL    HW1 4725   3.354   1.539   0.641
 1530SOL    HW2 4726   3.385   1.487   0.779
 1531SOL     OW 4727   2.957   0.699   0.688
 1531SOL    HW1 4728   3.013   0.776   0.678
 1531SOL    HW2 4729   2.925   0.705   0.778
 1532SOL     OW 4730   3.642   0.663   0.264
 1532SOL    HW1 4731   3.670   0.587   0.213
 1532SOL    HW2 4732   3.611   0.726   0.198
 1533SOL     OW 4733   2.630   1.132   1.118
 1533SOL    HW1 4734   2.709   1.185   1.127
 1533SOL    HW2 4735   2.647   1.076   1.042
 1534SOL     OW 4736   2.723   0.794   1.821
 1534SOL    HW1 4737   2.728   0.839   1.905
 1534SOL    HW2 4738   2.763   0.855   1.758
 1535SOL     OW 4739   2.620   1.015   0.640
 1535SOL    HW1 4740   2.536   1.044   0.674
 1535SOL    HW2 4741   2.608   1.011   0.545
 1536SOL     OW 4742   2.561   1.111   1.781
 1536SOL    HW1 4743   2.494   1.174   1.808
 1536SOL    HW2 4744   2.512   1.042   1.736
 1537SOL     OW 4745   2.160   1.409   1.049
 1537SOL    HW1 4746   2.244   1.368   1.067
 1537SOL    HW2 4747   2.178   1.503   1.048
 1538SOL     OW 4748   3.321   1.510   1.346
 1538SOL    HW1 4749   3.385   1.440   1.335
 1538SOL    HW2 4750   3.374   1.590   1.349
 1539SOL     OW 4751   2.321   0.390   1.579
 1539SOL    HW1 4752   2.398   0.436   1.613
 1539SOL    HW2 4753   2.312   0.421   1.489
 1540SOL     OW 4754   3.481   0.447   0.696
 1540SOL    HW1 4755   3.434   0.388   0.755
 1540SOL    HW2 4756   3.432   0.529   0.701
 1541SOL     OW 4757   2.104   1.691   0.492
 1541SOL    HW1 4758   2.022   1.707   0.446
 1541SOL    HW2 4759   2.171   1.697   0.425
 1542SOL     OW 4760   3.053   1.341   1.652
 1542SOL    HW1 4761   3.014   1.400   1.587
 1542SOL    HW2 4762   2.978   1.295   1.690
 1543SOL     OW 4763   2.093   1.419   0.565
 1543SOL    HW1 4764   2.168   1.410   0.623
 1543SOL    HW2 4765   2.076   1.513   0.562
 1544SOL     OW 4766   2.101   1.085   0.903
 1544SOL    HW1 4767   2.060   1.140   0.969
 1544SOL    HW2 4768   2.071   1.121   0.819
 1545SOL     OW 4769   2.485   1.808   1.459
 1545SOL    HW1 4770   2.519   1.761   1.534
 1545SOL    HW2 4771   2.501   1.750   1.384
 1546SOL     OW 4772   2.438   1.048   0.116
 1546SOL    HW1 4773   2.358   0.999   0.133
 1546SOL    HW2 4774   2.420   1.098   0.037
 1547SOL     OW 4775   3.395   0.200   1.430
 1547SOL    HW1 4776   3.379   0.189   1.524
 1547SOL    HW2 4777   3.406   0.111   1.397
 1548SOL     OW 4778   2.040   0.626   0.611
 1548SOL    HW1 4779   1.993   0.660   0.535
 1548SOL    HW2 4780   2.093   0.555   0.577
 1549SOL     OW 4781   3.717   1.751   0.335
 1549SOL    HW1 4782   3.799   1.757   0.385
 1549SOL    HW2 4783   3.648   1.752   0.402
 1550SOL     OW 4784   1.969   1.575   0.150
 1550SOL    HW1 4785   1.964   1.646   0.214
 1550SOL    HW2 4786   1.913   1.603   0.078
 1551SOL     OW 4787   3.579   0.928   0.609
 1551SOL    HW1 4788   3.602   0.961   0.696
 1551SOL    HW2 4789   3.657   0.881   0.580
 1552SOL     OW 4790   3.472   1.104   0.421
 1552SOL    HW1 4791   3.503   1.039   0.484
 1552SOL    HW2 4792   3.499   1.188   0.457
 1553SOL     OW 4793   1.934   0.730   1.576
 1553SOL    HW1 4794   1.952   0.810   1.625
 1553SOL    HW2 4795   1.968   0.660   1.632
 1554SOL     OW 4796   2.448   1.391   0.729
 1554SOL    HW1 4797   2.453   1.432   0.643
 1554SOL    HW2 4798   2.500   1.311   0.720
 1555SOL     OW 4799   3.145   1.172   1.405
 1555SOL    HW1 4800   3.205   1.218   1.464
 1555SOL    HW2 4801   3.073   1.233   1.392
 1556SOL     OW 4802   2.726   4.959   0.574
 1556SOL    HW1 4803   2.766   5.021   0.635
 1556SOL    HW2 4804   2.697   5.014   0.501
 1557SOL     OW 4805   2.054   0.948   1.263
 1557SOL    HW1 4806   2.136   0.899   1.273
 1557SOL    HW2 4807   2.021   0.922   1.177
 1558SOL     OW 4808   3.345   0.964   0.153
 1558SOL    HW1 4809   3.288   0.932   0.223
 1558SOL    HW2 4810   3.328   1.058   0.149
 1559SOL     OW 4811   3.101   1.868   1.593
 1559SOL    HW1 4812   3.022   1.879   1.645
 1559SOL    HW2 4813   3.096   1.779   1.559
 1560SOL     OW 4814   2.130   0.269   1.740
 1560SOL    HW1 4815   2.204   0.308   1.692
 1560SOL    HW2 4816   2.165   0.187   1.776
 1561SOL     OW 4817   3.328   1.409   0.936
 1561SOL    HW1 4818   3.408   1.439   0.980
 1561SOL    HW2 4819   3.260   1.414   1.004
 1562SOL     OW 4820   3.538   1.749   0.552
 1562SOL    HW1 4821   3.564   1.682   0.615
 1562SOL    HW2 4822   3.443   1.741   0.546
 1563SOL     OW 4823   2.461   0.752   0.287
 1563SOL    HW1 4824   2.464   0.791   0.374
 1563SOL    HW2 4825   2.531   0.687   0.287
 1564SOL     OW 4826   3.090   0.404   0.984
 1564SOL    HW1 4827   3.022   0.337   0.992
 1564SOL    HW2 4828   3.108   0.409   0.890
 1565SOL     OW 4829   3.424   1.616   0.291
 1565SOL    HW1 4830   3.349   1.616   0.351
 1565SOL    HW2 4831   3.493   1.570   0.339
 1566SOL     OW 4832   2.701   0.654   1.451
 1566SOL    HW1 4833   2.631   0.720   1.456
 1566SOL    HW2 4834   2.658   0.577   1.414
 1567SOL     OW 4835   3.275   0.423   1.706
 1567SOL    HW1 4836   3.289   0.477   1.784
 1567SOL    HW2 4837   3.186   0.445   1.677
 1568SOL     OW 4838   2.859   0.935   1.610
 1568SOL    HW1 4839   2.906   0.856   1.584
 1568SOL    HW2 4840   2.814   0.964   1.530
 1569SOL     OW 4841   2.846   0.362   1.250
 1569SOL    HW1 4842   2.934   0.366   1.287
 1569SOL    HW2 4843   2.857   0.314   1.168
 1570SOL     OW 4844   2.954   0.710   0.412
 1570SOL    HW1 4845   2.942   0.711   0.506
 1570SOL    HW2 4846   2.887   0.769   0.378
 1571SOL     OW 4847   1.893   0.797   0.788
 1571SOL    HW1 4848   1.951   0.796   0.863
 1571SOL    HW2 4849   1.929   0.730   0.729
 1572SOL     OW 4850   1.957   1.754   1.540
 1572SOL    HW1 4851   1.939   1.801   1.621
 1572SOL    HW2 4852   2.053   1.750   1.536
 1573SOL     OW 4853   2.745   0.363   0.211
 1573SOL    HW1 4854   2.832   0.325   0.223
 1573SOL    HW2 4855   2.684   0.293   0.235
 1574SOL     OW 4856   3.628   0.612   1.776
 1574SOL    HW1 4857   3.626   0.624   1.871
 1574SOL    HW2 4858   3.547   0.654   1.745
 1575SOL     OW 4859   3.228   1.145   0.551
 1575SOL    HW1 4860   3.265   1.163   0.637
 1575SOL    HW2 4861   3.304   1.128   0.495
 1576SOL     OW 4862   2.435   0.249   0.871
 1576SOL    HW1 4863   2.425   0.237   0.965
 1576SOL    HW2 4864   2.496   0.181   0.843
 1577SOL     OW 4865   2.816   1.428   0.445
 1577SOL    HW1 4866   2.817   1.479   0.526
 1577SOL    HW2 4867   2.906   1.398   0.435
 1578SOL     OW 4868   2.261   1.756   0.872
 1578SOL    HW1 4869   2.280   1.827   0.810
 1578SOL    HW2 4870   2.167   1.760   0.885
 1579SOL     OW 4871   3.630   1.084   0.842
 1579SOL    HW1 4872   3.653   1.121   0.927
 1579SOL    HW2 4873   3.548   1.129   0.818
 1580SOL     OW 4874   3.084   1.610   1.480
 1580SOL    HW1 4875   3.158   1.559   1.512
 1580SOL    HW2 4876   3.100   1.620   1.387
 1581SOL     OW 4877   2.233   0.884   0.223
 1581SOL    HW1 4878   2.195   0.872   0.310
 1581SOL    HW2 4879   2.314   0.833   0.224
 1582SOL     OW 4880   3.362   0.702   0.692
 1582SOL    HW1 4881   3.324   0.687   0.778
 1582SOL    HW2 4882   3.391   0.793   0.694
 1583SOL     OW 4883   2.309   1.248   1.738
 1583SOL    HW1 4884   2.234   1.292   1.779
 1583SOL    HW2 4885   2.300   1.156   1.764
 1584SOL     OW 4886   2.958   1.756   0.255
 1584SOL    HW1 4887   3.030   1.796   0.206
 1584SOL    HW2 4888   2.999   1.719   0.333
 1585SOL     OW 4889   2.011   0.252   1.481
 1585SOL    HW1 4890   2.067   0.227   1.555
 1585SOL    HW2 4891   1.933   0.290   1.522
 1586SOL     OW 4892   3.485   1.401   0.074
 1586SOL    HW1 4893   3.546   1.393   0.147
 1586SOL    HW2 4894   3.445   1.488   0.085
 1587SOL     OW 4895   2.368   1.723   0.340
 1587SOL    HW1 4896   2.442   1.784   0.339
 1587SOL    HW2 4897   2.367   1.686   0.251
 1588SOL     OW 4898   3.273   0.094   0.456
 1588SOL    HW1 4899   3.232   0.178   0.480
 1588SOL    HW2 4900   3.266   0.091   0.360
 1589SOL     OW 4901   2.130   1.790   1.247
 1589SOL    HW1 4902   2.037   1.773   1.260
 1589SOL    HW2 4903   2.138   1.816   1.155
 1590SOL     OW 4904   2.769   1.681   0.883
 1590SOL    HW1 4905   2.842   1.740   0.864
 1590SOL    HW2 4906   2.741   1.650   0.797
 1591SOL     OW 4907   2.226   0.819   0.498
 1591SOL    HW1 4908   2.306   0.782   0.535
 1591SOL    HW2 4909   2.155   0.767   0.536
 1592SOL     OW 4910   3.376   0.170   1.704
 1592SOL    HW1 4911   3.460   0.174   1.750
 1592SOL    HW2 4912   3.339   0.258   1.714
 1593SOL     OW 4913   2.436   0.139   0.035
 1593SOL    HW1 4914   2.481   0.222   0.021
 1593SOL    HW2 4915   2.503   0.080   0.066
 1594SOL     OW 4916   2.663   0.277   1.732
 1594SOL    HW1 4917   2.610   0.240   1.803
 1594SOL    HW2 4918   2.625   0.364   1.717
 1595SOL     OW 4919   2.748   1.537   1.237
 1595SOL    HW1 4920   2.655   1.554   1.252
 1595SOL    HW2 4921   2.751   1.490   1.153
 1596SOL     OW 4922   3.216   0.631   1.445
 1596SOL    HW1 4923   3.126   0.656   1.468
 1596SOL    HW2 4924   3.206   0.561   1.381
 1597SOL     OW 4925   2.702   1.435   0.974
 1597SOL    HW1 4926   2.729   1.523   0.948
 1597SOL    HW2 4927   2.606   1.438   0.972
 1598SOL     OW 4928   2.761   0.474   0.898
 1598SOL    HW1 4929   2.833   0.537   0.907
 1598SOL    HW2 4930   2.691   0.510   0.952
 1599SOL     OW 4931   2.435   4.991   0.464
 1599SOL    HW1 4932   2.416   5.001   0.558
 1599SOL    HW2 4933   2.350   4.971   0.424
 1600SOL     OW 4934   3.283   1.226   0.104
 1600SOL    HW1 4935   3.207   1.283   0.118
 1600SOL    HW2 4936   3.356   1.287   0.089
 1601SOL     OW 4937   2.195   0.049   0.241
 1601SOL    HW1 4938   2.127   0.102   0.282
 1601SOL    HW2 4939   2.196   0.077   0.150
 1602SOL     OW 4940   2.856   0.230   0.481
 1602SOL    HW1 4941   2.825   0.309   0.526
 1602SOL    HW2 4942   2.779   0.197   0.435
 1603SOL     OW 4943   2.957   0.679   1.535
 1603SOL    HW1 4944   2.976   0.604   1.592
 1603SOL    HW2 4945   2.867   0.664   1.505
 1604SOL     OW 4946   3.159   1.633   0.840
 1604SOL    HW1 4947   3.136   1.543   0.860
 1604SOL    HW2 4948   3.145   1.641   0.745
 1605SOL     OW 4949   2.382   1.104   0.726
 1605SOL    HW1 4950   2.344   1.165   0.790
 1605SOL    HW2 4951   2.316   1.099   0.657
 1606SOL     OW 4952   3.146   1.903   0.627
 1606SOL    HW1 4953   3.062   1.905   0.672
 1606SOL    HW2 4954   3.151   1.815   0.590
 1607SOL     OW 4955   2.827   0.534   0.006
 1607SOL    HW1 4956   2.790   0.486   0.080
 1607SOL    HW2 4957   2.860   0.466  -0.053
 1608SOL     OW 4958   1.935   0.561   1.363
 1608SOL    HW1 4959   1.933   0.631   1.427
 1608SOL    HW2 4960   1.854   0.512   1.377
 1609SOL     OW 4961   2.432   0.204   1.141
 1609SOL    HW1 4962   2.494   0.192   1.213
 1609SOL    HW2 4963   2.348   0.219   1.184
 1610SOL     OW 4964   2.744   0.457   0.608
 1610SOL    HW1 4965   2.730   0.448   0.702
 1610SOL    HW2 4966   2.804   0.532   0.599
 1611SOL     OW 4967   2.902   0.047   0.789
 1611SOL    HW1 4968   2.980   0.081   0.745
 1611SOL    HW2 4969   2.917  -0.047   0.796
 1612SOL     OW 4970   3.289   1.160   0.837
 1612SOL    HW1 4971   3.219   1.130   0.895
 1612SOL    HW2 4972   3.305   1.250   0.863
 1613SOL     OW 4973   3.284   0.614   0.950
 1613SOL    HW1 4974   3.225   0.539   0.960
 1613SOL    HW2 4975   3.356   0.596   1.011
 1614SOL     OW 4976   3.792   0.852   0.405
 1614SOL    HW1 4977   3.738   0.905   0.347
 1614SOL    HW2 4978   3.762   0.762   0.390
 1615SOL     OW 4979   2.390   1.394   0.158
 1615SOL    HW1 4980   2.459   1.351   0.208
 1615SOL    HW2 4981   2.309   1.367   0.201
 1616SOL     OW 4982   3.543   1.282   0.619
 1616SOL    HW1 4983   3.637   1.283   0.636
 1616SOL    HW2 4984   3.512   1.368   0.646
 1617SOL     OW 4985   3.255   0.536   0.131
 1617SOL    HW1 4986   3.312   0.610   0.154
 1617SOL    HW2 4987   3.248   0.540   0.036
 1618SOL     OW 4988   2.354   0.290   0.323
 1618SOL    HW1 4989   2.320   0.207   0.291
 1618SOL    HW2 4990   2.342   0.351   0.251
 1619SOL     OW 4991   3.573   1.236   1.542
 1619SOL    HW1 4992   3.488   1.249   1.584
 1619SOL    HW2 4993   3.589   1.142   1.549
 1620SOL     OW 4994   2.943   1.346   1.330
 1620SOL    HW1 4995   2.868   1.405   1.335
 1620SOL    HW2 4996   2.919   1.281   1.264
 1621SOL     OW 4997   3.468   1.663   1.636
 1621SOL    HW1 4998   3.546   1.608   1.641
 1621SOL    HW2 4999   3.425   1.650   1.721
 1622SOL     OW 5000   2.911   1.184   1.116
 1622SOL    HW1 5001   2.994   1.139   1.125
 1622SOL    HW2 5002   2.919   1.233   1.033
 1623SOL     OW 5003   3.490   1.108   1.115
 1623SOL    HW1 5004   3.521   1.020   1.139
 1623SOL    HW2 5005   3.418   1.092   1.054
 1624SOL     OW 5006   2.784   0.059   1.393
 1624SOL    HW1 5007   2.699   0.102   1.403
 1624SOL    HW2 5008   2.847   0.122   1.429
 1625SOL     OW 5009   2.815   1.190   1.717
 1625SOL    HW1 5010   2.725   1.165   1.738
 1625SOL    HW2 5011   2.858   1.108   1.691
 1626SOL     OW 5012   2.572   1.045   0.363
 1626SOL    HW1 5013   2.591   1.138   0.353
 1626SOL    HW2 5014   2.516   1.024   0.288
 1627SOL     OW 5015   2.287   0.790   1.280
 1627SOL    HW1 5016   2.334   0.804   1.198
 1627SOL    HW2 5017   2.263   0.697   1.278
 1628SOL     OW 5018   3.161   0.437   1.250
 1628SOL    HW1 5019   3.241   0.383   1.250
 1628SOL    HW2 5020   3.134   0.438   1.158
 1629SOL     OW 5021   1.924   1.589   1.280
 1629SOL    HW1 5022   1.991   1.600   1.347
 1629SOL    HW2 5023   1.907   1.495   1.278
 1630SOL     OW 5024   2.200   1.103   0.520
 1630SOL    HW1 5025   2.199   1.010   0.497
 1630SOL    HW2 5026   2.192   1.149   0.437
 1631SOL     OW 5027   2.399   0.513   0.803
 1631SOL    HW1 5028   2.332   0.530   0.869
 1631SOL    HW2 5029   2.425   0.422   0.818
 1632SOL     OW 5030   3.070   1.331   0.404
 1632SOL    HW1 5031   3.113   1.413   0.428
 1632SOL    HW2 5032   3.122   1.262   0.445
 1633SOL     OW 5033   3.153   1.434   1.145
 1633SOL    HW1 5034   3.210   1.464   1.217
 1633SOL    HW2 5035   3.079   1.394   1.189
 1634SOL     OW 5036   3.404   0.651   0.417
 1634SOL    HW1 5037   3.405   0.669   0.511
 1634SOL    HW2 5038   3.493   0.673   0.388
 1635SOL     OW 5039   2.252   1.501   1.336
 1635SOL    HW1 5040   2.269   1.437   1.405
 1635SOL    HW2 5041   2.234   1.449   1.258
 1636SOL     OW 5042   2.268   0.749   1.587
 1636SOL    HW1 5043   2.199   0.783   1.643
 1636SOL    HW2 5044   2.235   0.761   1.498
 1637SOL     OW 5045   3.405   0.731   1.662
 1637SOL    HW1 5046   3.339   0.783   1.708
 1637SOL    HW2 5047   3.355   0.681   1.598
 1638SOL     OW 5048   2.916   0.175   1.761
 1638SOL    HW1 5049   2.827   0.210   1.752
 1638SOL    HW2 5050   2.905   0.081   1.749
 1639SOL     OW 5051   2.288   0.052   1.801
 1639SOL    HW1 5052   2.306   0.041   1.708
 1639SOL    HW2 5053   2.370   0.087   1.837
 1640SOL     OW 5054   2.450   0.858   1.047
 1640SOL    HW1 5055   2.534   0.891   1.014
 1640SOL    HW2 5056   2.386   0.921   1.014
 1641SOL     OW 5057   3.280   0.854   1.086
 1641SOL    HW1 5058   3.319   0.830   1.170
 1641SOL    HW2 5059   3.286   0.774   1.034
 1642SOL     OW 5060   3.035   0.485   0.278
 1642SOL    HW1 5061   3.000   0.565   0.315
 1642SOL    HW2 5062   3.109   0.514   0.224
 1643SOL     OW 5063   2.189   0.243   1.276
 1643SOL    HW1 5064   2.123   0.239   1.345
 1643SOL    HW2 5065   2.143   0.215   1.196
 1644SOL     OW 5066   1.890   1.318   1.287
 1644SOL    HW1 5067   1.911   1.286   1.199
 1644SOL    HW2 5068   1.939   1.260   1.345
 1645SOL     OW 5069   2.610   0.626   1.089
 1645SOL    HW1 5070   2.681   0.676   1.130
 1645SOL    HW2 5071   2.545   0.692   1.066
 1646SOL     OW 5072   3.591   0.946   1.894
 1646SOL    HW1 5073   3.684   0.961   1.915
 1646SOL    HW2 5074   3.582   0.975   1.804
 1647SOL     OW 5075   2.162   0.059   0.645
 1647SOL    HW1 5076   2.240   0.029   0.692
 1647SOL    HW2 5077   2.156   0.001   0.568
 1648SOL     OW 5078   3.422   0.380   0.370
 1648SOL    HW1 5079   3.487   0.351   0.434
 1648SOL    HW2 5080   3.420   0.475   0.380
 1649SOL     OW 5081   2.906   0.738   0.958
 1649SOL    HW1 5082   2.871   0.742   1.047
 1649SOL    HW2 5083   3.001   0.749   0.969
 1650SOL     OW 5084   2.821   1.588   1.723
 1650SOL    HW1 5085   2.807   1.680   1.743
 1650SOL    HW2 5086   2.805   1.582   1.629
 1651SOL     OW 5087   3.691   1.507   1.624
 1651SOL    HW1 5088   3.781   1.509   1.656
 1651SOL    HW2 5089   3.677   1.416   1.598
 1652SOL     OW 5090   2.282   0.991   1.826
 1652SOL    HW1 5091   2.253   0.969   1.915
 1652SOL    HW2 5092   2.203   0.986   1.773
 1653SOL     OW 5093   3.398   0.259   0.120
 1653SOL    HW1 5094   3.392   0.313   0.199
 1653SOL    HW2 5095   3.338   0.186   0.137
 1654SOL     OW 5096   3.192   0.781  -0.000
 1654SOL    HW1 5097   3.139   0.770   0.078
 1654SOL    HW2 5098   3.236   0.865   0.013
 1655SOL     OW 5099   2.933   1.307   0.877
 1655SOL    HW1 5100   2.850   1.354   0.892
 1655SOL    HW2 5101   2.914   1.249   0.803
 1656SOL     OW 5102   2.105   0.819   0.965
 1656SOL    HW1 5103   2.115   0.911   0.940
 1656SOL    HW2 5104   2.176   0.774   0.920
 1657SOL     OW 5105   2.204   0.523   1.009
 1657SOL    HW1 5106   2.229   0.535   1.100
 1657SOL    HW2 5107   2.110   0.540   1.007
 1658SOL     OW 5108   2.991   0.428   1.661
 1658SOL    HW1 5109   2.976   0.358   1.724
 1658SOL    HW2 5110   2.972   0.389   1.575
 1659SOL     OW 5111   3.027   0.207   1.469
 1659SOL    HW1 5112   3.071   0.220   1.553
 1659SOL    HW2 5113   3.069   0.129   1.432
 1660SOL     OW 5114   1.794   1.385   0.229
 1660SOL    HW1 5115   1.780   1.398   0.323
 1660SOL    HW2 5116   1.858   1.452   0.206
 1661SOL     OW 5117   1.993   1.778   0.902
 1661SOL    HW1 5118   1.921   1.819   0.950
 1661SOL    HW2 5119   1.956   1.697   0.868
 1662SOL     OW 5120   2.426   1.557   0.945
 1662SOL    HW1 5121   2.362   1.623   0.918
 1662SOL    HW2 5122   2.431   1.496   0.872
 1663SOL     OW 5123   2.821   0.763   1.218
 1663SOL    HW1 5124   2.864   0.843   1.247
 1663SOL    HW2 5125   2.796   0.718   1.299
 1664SOL     OW 5126   1.936   0.524   1.090
 1664SOL    HW1 5127   1.937   0.548   1.183
 1664SOL    HW2 5128   1.849   0.549   1.060
 1665SOL     OW 5129   2.062   0.546   1.726
 1665SOL    HW1 5130   2.156   0.544   1.708
 1665SOL    HW2 5131   2.034   0.455   1.720
 1666SOL     OW 5132   3.220   0.971   1.596
 1666SOL    HW1 5133   3.177   0.945   1.677
 1666SOL    HW2 5134   3.153   1.020   1.548
 1667SOL     OW 5135   2.637   0.564   0.352
 1667SOL    HW1 5136   2.646   0.524   0.439
 1667SOL    HW2 5137   2.679   0.500   0.294
 1668SOL     OW 5138   3.482   0.618   1.142
 1668SOL    HW1 5139   3.516   0.702   1.172
 1668SOL    HW2 5140   3.558   0.560   1.139
 1669SOL     OW 5141   2.103   1.576   1.798
 1669SOL    HW1 5142   2.177   1.589   1.738
 1669SOL    HW2 5143   2.090   1.482   1.800
 1670SOL     OW 5144   2.594   0.446   1.311
 1670SOL    HW1 5145   2.680   0.407   1.294
 1670SOL    HW2 5146   2.570   0.488   1.228
 1671SOL     OW 5147   2.818   1.687   1.454
 1671SOL    HW1 5148   2.911   1.668   1.462
 1671SOL    HW2 5149   2.790   1.641   1.375
 1672SOL     OW 5150   2.328   0.530   0.160
 1672SOL    HW1 5151   2.360   0.581   0.234
 1672SOL    HW2 5152   2.306   0.595   0.094
 1673SOL     OW 5153   2.031   1.149   1.446
 1673SOL    HW1 5154   2.002   1.112   1.529
 1673SOL    HW2 5155   2.033   1.074   1.386
 1674SOL     OW 5156   3.158   1.084   1.135
 1674SOL    HW1 5157   3.178   1.103   1.227
 1674SOL    HW2 5158   3.201   1.001   1.118
 1675SOL     OW 5159   3.187   0.823   0.324
 1675SOL    HW1 5160   3.254   0.772   0.370
 1675SOL    HW2 5161   3.104   0.792   0.359
 1676SOL     OW 5162   3.611   1.773   1.127
 1676SOL    HW1 5163   3.577   1.747   1.212
 1676SOL    HW2 5164   3.626   1.867   1.134
 1677SOL     OW 5165   3.136   1.724   1.164
 1677SOL    HW1 5166   3.204   1.763   1.109
 1677SOL    HW2 5167   3.108   1.645   1.117
 1678SOL     OW 5168   1.921   1.284   1.014
 1678SOL    HW1 5169   1.848   1.345   1.003
 1678SOL    HW2 5170   1.999   1.340   1.013
 1679SOL     OW 5171   2.513   1.680   1.703
 1679SOL    HW1 5172   2.514   1.672   1.798
 1679SOL    HW2 5173   2.519   1.590   1.671
 1680SOL     OW 5174   2.768   0.066   0.112
 1680SOL    HW1 5175   2.842   0.117   0.145
 1680SOL    HW2 5176   2.793   0.040   0.024
 1681SOL     OW 5177   3.583   0.151   0.521
 1681SOL    HW1 5178   3.618   0.073   0.564
 1681SOL    HW2 5179   3.491   0.129   0.504
 1682SOL     OW 5180   1.982   1.821   1.809
 1682SOL    HW1 5181   2.022   1.857   1.889
 1682SOL    HW2 5182   2.027   1.738   1.796
 1683SOL     OW 5183   3.082   0.938   0.675
 1683SOL    HW1 5184   3.017   1.003   0.700
 1683SOL    HW2 5185   3.148   0.987   0.626
 1684SOL     OW 5186   2.644   1.298   1.414
 1684SOL    HW1 5187   2.604   1.335   1.493
 1684SOL    HW2 5188   2.678   1.213   1.443
 1685SOL     OW 5189   2.498   1.651   0.106
 1685SOL    HW1 5190   2.581   1.645   0.154
 1685SOL    HW2 5191   2.469   1.560   0.096
 1686SOL     OW 5192   3.537   1.695   1.377
 1686SOL    HW1 5193   3.630   1.675   1.384
 1686SOL    HW2 5194   3.504   1.690   1.467
 1687SOL     OW 5195   3.666   0.175   0.915
 1687SOL    HW1 5196   3.713   0.114   0.972
 1687SOL    HW2 5197   3.726   0.249   0.904
 1688SOL     OW 5198   2.087   0.304   0.731
 1688SOL    HW1 5199   2.153   0.366   0.697
 1688SOL    HW2 5200   2.111   0.220   0.691
 1689SOL     OW 5201   3.064   1.654   4.969
 1689SOL    HW1 5202   3.011   1.621   5.042
 1689SOL    HW2 5203   3.018   1.733   4.940
 1690SOL     OW 5204   2.709   1.009   1.385
 1690SOL    HW1 5205   2.631   0.959   1.407
 1690SOL    HW2 5206   2.688   1.051   1.301
 1691SOL     OW 5207   2.788   0.885   0.286
 1691SOL    HW1 5208   2.714   0.939   0.311
 1691SOL    HW2 5209   2.763   0.848   0.201
 1692SOL     OW 5210   3.345   1.639   0.033
 1692SOL    HW1 5211   3.343   1.644   0.128
 1692SOL    HW2 5212   3.255   1.654   0.006
 1693SOL     OW 5213   2.280   1.259   1.460
 1693SOL    HW1 5214   2.299   1.251   1.554
 1693SOL    HW2 5215   2.194   1.219   1.450
 1694SOL     OW 5216   3.510   1.318   1.288
 1694SOL    HW1 5217   3.516   1.277   1.374
 1694SOL    HW2 5218   3.494   1.245   1.228
 1695SOL     OW 5219   2.874   1.127   0.674
 1695SOL    HW1 5220   2.787   1.089   0.659
 1695SOL    HW2 5221   2.904   1.153   0.587
 1696SOL     OW 5222   2.867   0.234   0.991
 1696SOL    HW1 5223   2.817   0.307   0.954
 1696SOL    HW2 5224   2.870   0.169   0.921
 1697SOL     OW 5225   2.482   1.497   0.480
 1697SOL    HW1 5226   2.442   1.571   0.434
 1697SOL    HW2 5227   2.520   1.443   0.411
 1698SOL     OW 5228   3.592   0.388   1.429
 1698SOL    HW1 5229   3.640   0.330   1.370
 1698SOL    HW2 5230   3.503   0.355   1.429
 1699SOL     OW 5231   2.132   1.349   0.295
 1699SOL    HW1 5232   2.118   1.375   0.387
 1699SOL    HW2 5233   2.092   1.419   0.244
 1700SOL     OW 5234   2.534   0.177   1.409
 1700SOL    HW1 5235   2.462   0.148   1.465
 1700SOL    HW2 5236   2.537   0.272   1.422
 1701SOL     OW 5237   3.340   0.859   1.370
 1701SOL    HW1 5238   3.305   0.916   1.439
 1701SOL    HW2 5239   3.304   0.772   1.390
 1702SOL     OW 5240   1.988   0.198   0.326
 1702SOL    HW1 5241   1.953   0.283   0.351
 1702SOL    HW2 5242   1.913   0.151   0.289
 1703SOL     OW 5243   3.035   1.359   0.120
 1703SOL    HW1 5244   3.034   1.348   0.215
 1703SOL    HW2 5245   2.942   1.361   0.095
 1704SOL     OW 5246   2.498   0.840   1.457
 1704SOL    HW1 5247   2.447   0.816   1.534
 1704SOL    HW2 5248   2.435   0.842   1.385
 1705SOL     OW 5249   3.343   1.799   0.981
 1705SOL    HW1 5250   3.428   1.757   0.992
 1705SOL    HW2 5251   3.294   1.740   0.923
 1706SOL     OW 5252   2.539   0.526   1.684
 1706SOL    HW1 5253   2.508   0.574   1.760
 1706SOL    HW2 5254   2.612   0.579   1.651
 1707SOL     OW 5255   3.314   1.240   1.626
 1707SOL    HW1 5256   3.237   1.283   1.662
 1707SOL    HW2 5257   3.300   1.147   1.645
 1708SOL     OW 5258   2.224   1.730   1.521
 1708SOL    HW1 5259   2.308   1.776   1.522
 1708SOL    HW2 5260   2.217   1.694   1.432
 1709SOL     OW 5261   3.578   0.867   1.237
 1709SOL    HW1 5262   3.656   0.900   1.282
 1709SOL    HW2 5263   3.507   0.875   1.301
 1710SOL     OW 5264   3.172   0.349   0.469
 1710SOL    HW1 5265   3.258   0.367   0.432
 1710SOL    HW2 5266   3.111   0.396   0.411
 1711SOL     OW 5267   2.449   0.718   0.620
 1711SOL    HW1 5268   2.517   0.772   0.661
 1711SOL    HW2 5269   2.437   0.644   0.680
 1712SOL     OW 5270   3.658   0.350   1.691
 1712SOL    HW1 5271   3.624   0.429   1.734
 1712SOL    HW2 5272   3.629   0.358   1.600
 1713SOL     OW 5273   3.570   0.957   1.554
 1713SOL    HW1 5274   3.494   0.900   1.568
 1713SOL    HW2 5275   3.645   0.897   1.558
 1714SOL     OW 5276   2.762   1.379   5.021
 1714SOL    HW1 5277   2.726   1.411   4.938
 1714SOL    HW2 5278   2.742   1.285   5.022
 1715SOL     OW 5279   2.546   1.841   0.945
 1715SOL    HW1 5280   2.628   1.793   0.936
 1715SOL    HW2 5281   2.478   1.774   0.947
 1716SOL     OW 5282   2.681   0.945   0.912
 1716SOL    HW1 5283   2.764   0.898   0.912
 1716SOL    HW2 5284   2.669   0.972   0.820
 1717SOL     OW 5285   2.997   0.990   0.091
 1717SOL    HW1 5286   2.980   0.991   0.185
 1717SOL    HW2 5287   2.940   0.921   0.057
 1718SOL     OW 5288   3.753   1.551   0.765
 1718SOL    HW1 5289   3.676   1.519   0.813
 1718SOL    HW2 5290   3.786   1.622   0.819
 1719SOL     OW 5291   2.048   1.303   1.827
 1719SOL    HW1 5292   1.994   1.307   1.906
 1719SOL    HW2 5293   2.024   1.219   1.787
 1720SOL     OW 5294   1.935   1.204   0.671
 1720SOL    HW1 5295   1.977   1.287   0.646
 1720SOL    HW2 5296   1.959   1.143   0.601
 1721SOL     OW 5297   2.530   1.404   1.661
 1721SOL    HW1 5298   2.589   1.388   1.735
 1721SOL    HW2 5299   2.450   1.357   1.684
 1722SOL     OW 5300   3.727   0.229   1.255
 1722SOL    HW1 5301   3.822   0.218   1.251
 1722SOL    HW2 5302   3.707   0.288   1.182
 1723SOL     OW 5303   2.266   0.434   0.546
 1723SOL    HW1 5304   2.345   0.456   0.596
 1723SOL    HW2 5305   2.298   0.383   0.471
 1724SOL     OW 5306   3.547   1.500   1.067
 1724SOL    HW1 5307   3.546   1.453   1.151
 1724SOL    HW2 5308   3.587   1.585   1.088
 1725SOL     OW 5309   2.201   0.524   1.292
 1725SOL    HW1 5310   2.111   0.540   1.322
 1725SOL    HW2 5311   2.208   0.429   1.287
 1726SOL     OW 5312   2.692   1.611   0.632
 1726SOL    HW1 5313   2.691   1.703   0.605
 1726SOL    HW2 5314   2.617   1.572   0.587
 1727SOL     OW 5315   3.316   0.206   1.145
 1727SOL    HW1 5316   3.375   0.183   1.216
 1727SOL    HW2 5317   3.232   0.169   1.171
 1728SOL     OW 5318   2.821  -0.014   1.132
 1728SOL    HW1 5319   2.818   0.004   1.225
 1728SOL    HW2 5320   2.852   0.067   1.092
 1729SOL     OW 5321   2.621   1.312   0.298
 1729SOL    HW1 5322   2.692   1.348   0.351
 1729SOL    HW2 5323   2.661   1.296   0.212
 1730SOL     OW 5324   2.484   1.619   1.243
 1730SOL    HW1 5325   2.405   1.581   1.282
 1730SOL    HW2 5326   2.469   1.613   1.148
 1731SOL     OW 5327   3.225   0.061   0.185
 1731SOL    HW1 5328   3.135   0.083   0.162
 1731SOL    HW2 5329   3.233  -0.032   0.165
 1732SOL     OW 5330   3.121   0.442   0.721
 1732SOL    HW1 5331   3.102   0.532   0.694
 1732SOL    HW2 5332   3.143   0.397   0.640
 1733SOL     OW 5333   3.401   0.250   0.883
 1733SOL    HW1 5334   3.492   0.221   0.892
 1733SOL    HW2 5335   3.364   0.242   0.971
 1734SOL     OW 5336   2.708   1.638   0.290
 1734SOL    HW1 5337   2.739   1.564   0.343
 1734SOL    HW2 5338   2.786   1.691   0.276
 1735SOL     OW 5339   2.074   0.678   1.985
 1735SOL    HW1 5340   2.143   0.617   2.011
 1735SOL    HW2 5341   2.049   0.650   1.897
 1736SOL     OW 5342   2.055   0.279   2.848
 1736SOL    HW1 5343   2.101   0.347   2.898
 1736SOL    HW2 5344   2.090   0.286   2.759
 1737SOL     OW 5345   1.872   0.410   2.467
 1737SOL    HW1 5346   1.853   0.348   2.538
 1737SOL    HW2 5347   1.892   0.355   2.391
 1738SOL     OW 5348   2.397   1.298   2.944
 1738SOL    HW1 5349   2.477   1.338   2.910
 1738SOL    HW2 5350   2.415   1.204   2.944
 1739SOL     OW 5351   3.460   1.566   2.598
 1739SOL    HW1 5352   3.474   1.475   2.572
 1739SOL    HW2 5353   3.367   1.570   2.621
 1740SOL     OW 5354   3.008   0.702   2.558
 1740SOL    HW1 5355   2.971   0.698   2.646
 1740SOL    HW2 5356   3.048   0.789   2.553
 1741SOL     OW 5357   3.662   0.584   2.055
 1741SOL    HW1 5358   3.750   0.550   2.042
 1741SOL    HW2 5359   3.614   0.511   2.095
 1742SOL     OW 5360   2.622   1.110   2.897
 1742SOL    HW1 5361   2.671   1.118   2.979
 1742SOL    HW2 5362   2.637   1.193   2.851
 1743SOL     OW 5363   2.686   0.779   3.666
 1743SOL    HW1 5364   2.675   0.821   3.751
 1743SOL    HW2 5365   2.749   0.708   3.682
 1744SOL     OW 5366   2.541   1.003   2.506
 1744SOL    HW1 5367   2.584   1.035   2.426
 1744SOL    HW2 5368   2.513   0.914   2.484
 1745SOL     OW 5369   2.576   1.120   3.692
 1745SOL    HW1 5370   2.543   1.056   3.755
 1745SOL    HW2 5371   2.498   1.160   3.655
 1746SOL     OW 5372   2.213   1.491   2.974
 1746SOL    HW1 5373   2.264   1.410   2.965
 1746SOL    HW2 5374   2.239   1.543   2.898
 1747SOL     OW 5375   3.343   1.495   3.216
 1747SOL    HW1 5376   3.367   1.524   3.303
 1747SOL    HW2 5377   3.390   1.412   3.204
 1748SOL     OW 5378   2.307   0.457   3.367
 1748SOL    HW1 5379   2.241   0.388   3.371
 1748SOL    HW2 5380   2.362   0.433   3.293
 1749SOL     OW 5381   3.440   0.432   2.531
 1749SOL    HW1 5382   3.346   0.453   2.530
 1749SOL    HW2 5383   3.448   0.366   2.599
 1750SOL     OW 5384   2.108   1.733   2.335
 1750SOL    HW1 5385   2.123   1.824   2.361
 1750SOL    HW2 5386   2.179   1.714   2.273
 1751SOL     OW 5387   3.060   1.361   3.622
 1751SOL    HW1 5388   3.060   1.452   3.653
 1751SOL    HW2 5389   2.972   1.348   3.586
 1752SOL     OW 5390   2.095   1.466   2.416
 1752SOL    HW1 5391   2.174   1.463   2.471
 1752SOL    HW2 5392   2.084   1.559   2.395
 1753SOL     OW 5393   2.099   1.032   2.766
 1753SOL    HW1 5394   2.176   1.077   2.732
 1753SOL    HW2 5395   2.062   0.988   2.690
 1754SOL     OW 5396   2.478   1.772   3.259
 1754SOL    HW1 5397   2.514   1.772   3.347
 1754SOL    HW2 5398   2.490   1.862   3.228
 1755SOL     OW 5399   2.461   0.944   2.046
 1755SOL    HW1 5400   2.367   0.942   2.062
 1755SOL    HW2 5401   2.469   0.959   1.952
 1756SOL     OW 5402   3.354   0.132   3.286
 1756SOL    HW1 5403   3.390   0.221   3.282
 1756SOL    HW2 5404   3.419   0.079   3.239
 1757SOL     OW 5405   2.041   0.628   2.447
 1757SOL    HW1 5406   2.117   0.570   2.449
 1757SOL    HW2 5407   1.966   0.569   2.453
 1758SOL     OW 5408   3.755   1.816   2.105
 1758SOL    HW1 5409   3.815   1.797   2.177
 1758SOL    HW2 5410   3.729   1.907   2.119
 1759SOL     OW 5411   1.900   1.595   2.000
 1759SOL    HW1 5412   1.986   1.608   1.960
 1759SOL    HW2 5413   1.838   1.628   1.935
 1760SOL     OW 5414   3.509   0.905   2.530
 1760SOL    HW1 5415   3.564   0.955   2.591
 1760SOL    HW2 5416   3.505   0.959   2.451
 1761SOL     OW 5417   3.486   1.103   2.338
 1761SOL    HW1 5418   3.397   1.138   2.351
 1761SOL    HW2 5419   3.482   1.061   2.252
 1762SOL     OW 5420   1.998   0.779   3.434
 1762SOL    HW1 5421   1.931   0.846   3.422
 1762SOL    HW2 5422   1.962   0.701   3.391
 1763SOL     OW 5423   2.428   1.385   2.596
 1763SOL    HW1 5424   2.509   1.380   2.647
 1763SOL    HW2 5425   2.388   1.299   2.607
 1764SOL     OW 5426   3.179   1.200   3.324
 1764SOL    HW1 5427   3.242   1.210   3.253
 1764SOL    HW2 5428   3.100   1.246   3.293
 1765SOL     OW 5429   2.659   4.962   2.456
 1765SOL    HW1 5430   2.715   5.001   2.523
 1765SOL    HW2 5431   2.692   4.997   2.373
 1766SOL     OW 5432   2.024   0.984   3.122
 1766SOL    HW1 5433   1.933   0.958   3.110
 1766SOL    HW2 5434   2.050   1.021   3.038
 1767SOL     OW 5435   3.409   0.985   2.098
 1767SOL    HW1 5436   3.350   1.043   2.050
 1767SOL    HW2 5437   3.474   0.957   2.034
 1768SOL     OW 5438   3.086   1.821   3.535
 1768SOL    HW1 5439   3.087   1.902   3.484
 1768SOL    HW2 5440   3.084   1.752   3.469
 1769SOL     OW 5441   2.169   0.219   3.643
 1769SOL    HW1 5442   2.252   0.220   3.692
 1769SOL    HW2 5443   2.103   0.244   3.707
 1770SOL     OW 5444   3.343   1.364   2.827
 1770SOL    HW1 5445   3.418   1.416   2.856
 1770SOL    HW2 5446   3.268   1.404   2.872
 1771SOL     OW 5447   3.602   1.723   2.412
 1771SOL    HW1 5448   3.559   1.676   2.484
 1771SOL    HW2 5449   3.550   1.700   2.334
 1772SOL     OW 5450   2.463   0.692   2.160
 1772SOL    HW1 5451   2.393   0.715   2.220
 1772SOL    HW2 5452   2.483   0.774   2.114
 1773SOL     OW 5453   3.137   0.380   2.843
 1773SOL    HW1 5454   3.053   0.335   2.844
 1773SOL    HW2 5455   3.181   0.347   2.765
 1774SOL     OW 5456   3.419   1.673   2.200
 1774SOL    HW1 5457   3.387   1.762   2.183
 1774SOL    HW2 5458   3.423   1.633   2.113
 1775SOL     OW 5459   2.697   0.504   3.330
 1775SOL    HW1 5460   2.717   0.438   3.396
 1775SOL    HW2 5461   2.632   0.560   3.372
 1776SOL     OW 5462   3.286   0.431   3.527
 1776SOL    HW1 5463   3.293   0.481   3.608
 1776SOL    HW2 5464   3.283   0.498   3.458
 1777SOL     OW 5465   2.795   0.882   3.432
 1777SOL    HW1 5466   2.756   0.847   3.512
 1777SOL    HW2 5467   2.861   0.818   3.407
 1778SOL     OW 5468   2.818   0.402   3.091
 1778SOL    HW1 5469   2.776   0.428   3.172
 1778SOL    HW2 5470   2.843   0.484   3.049
 1779SOL     OW 5471   2.926   0.703   2.282
 1779SOL    HW1 5472   2.948   0.698   2.375
 1779SOL    HW2 5473   2.847   0.651   2.272
 1780SOL     OW 5474   1.970   0.863   2.599
 1780SOL    HW1 5475   1.884   0.886   2.563
 1780SOL    HW2 5476   1.994   0.781   2.555
 1781SOL     OW 5477   1.915   1.831   3.441
 1781SOL    HW1 5478   2.004   1.814   3.409
 1781SOL    HW2 5479   1.921   1.821   3.536
 1782SOL     OW 5480   2.719   0.363   2.054
 1782SOL    HW1 5481   2.798   0.321   2.090
 1782SOL    HW2 5482   2.752   0.418   1.983
 1783SOL     OW 5483   3.630   0.624   3.654
 1783SOL    HW1 5484   3.645   0.609   3.747
 1783SOL    HW2 5485   3.628   0.536   3.616
 1784SOL     OW 5486   3.249   1.213   2.418
 1784SOL    HW1 5487   3.236   1.200   2.512
 1784SOL    HW2 5488   3.264   1.307   2.409
 1785SOL     OW 5489   2.404   0.216   2.722
 1785SOL    HW1 5490   2.408   0.217   2.818
 1785SOL    HW2 5491   2.418   0.124   2.699
 1786SOL     OW 5492   2.821   1.475   2.273
 1786SOL    HW1 5493   2.857   1.549   2.224
 1786SOL    HW2 5494   2.894   1.414   2.281
 1787SOL     OW 5495   3.682   1.039   2.698
 1787SOL    HW1 5496   3.772   1.042   2.730
 1787SOL    HW2 5497   3.629   1.063   2.774
 1788SOL     OW 5498   3.090   1.622   3.338
 1788SOL    HW1 5499   3.109   1.534   3.371
 1788SOL    HW2 5500   3.150   1.633   3.264
 1789SOL     OW 5501   2.191   0.906   2.087
 1789SOL    HW1 5502   2.208   0.876   2.176
 1789SOL    HW2 5503   2.140   0.836   2.047
 1790SOL     OW 5504   3.325   0.727   2.624
 1790SOL    HW1 5505   3.251   0.786   2.609
 1790SOL    HW2 5506   3.401   0.775   2.593
 1791SOL     OW 5507   2.332   1.229   3.605
 1791SOL    HW1 5508   2.259   1.276   3.645
 1791SOL    HW2 5509   2.305   1.138   3.605
 1792SOL     OW 5510   2.956   1.666   2.123
 1792SOL    HW1 5511   2.949   1.759   2.142
 1792SOL    HW2 5512   2.999   1.663   2.037
 1793SOL     OW 5513   2.076   0.291   3.402
 1793SOL    HW1 5514   2.115   0.246   3.476
 1793SOL    HW2 5515   1.982   0.291   3.420
 1794SOL     OW 5516   3.463   1.334   1.937
 1794SOL    HW1 5517   3.554   1.316   1.962
 1794SOL    HW2 5518   3.460   1.429   1.924
 1795SOL     OW 5519   2.328   1.698   2.167
 1795SOL    HW1 5520   2.370   1.641   2.231
 1795SOL    HW2 5521   2.388   1.699   2.093
 1796SOL     OW 5522   3.249   0.099   2.280
 1796SOL    HW1 5523   3.192   0.174   2.300
 1796SOL    HW2 5524   3.259   0.101   2.185
 1797SOL     OW 5525   2.082   1.818   3.099
 1797SOL    HW1 5526   2.022   1.760   3.146
 1797SOL    HW2 5527   2.081   1.785   3.009
 1798SOL     OW 5528   2.765   1.740   2.773
 1798SOL    HW1 5529   2.798   1.813   2.721
 1798SOL    HW2 5530   2.751   1.669   2.710
 1799SOL     OW 5531   2.259   0.771   2.327
 1799SOL    HW1 5532   2.317   0.775   2.404
 1799SOL    HW2 5533   2.180   0.729   2.359
 1800SOL     OW 5534   3.408   0.201   3.604
 1800SOL    HW1 5535   3.432   0.225   3.694
 1800SOL    HW2 5536   3.355   0.274   3.573
 1801SOL     OW 5537   2.527   0.132   1.925
 1801SOL    HW1 5538   2.576   0.150   2.005
 1801SOL    HW2 5539   2.556   0.045   1.898
 1802SOL     OW 5540   2.632   0.318   3.585
 1802SOL    HW1 5541   2.648   0.310   3.679
 1802SOL    HW2 5542   2.588   0.403   3.576
 1803SOL     OW 5543   2.749   1.488   3.104
 1803SOL    HW1 5544   2.660   1.522   3.092
 1803SOL    HW2 5545   2.779   1.468   3.015
 1804SOL     OW 5546   3.209   0.597   3.311
 1804SOL    HW1 5547   3.119   0.629   3.312
 1804SOL    HW2 5548   3.211   0.528   3.245
 1805SOL     OW 5549   2.627   1.393   2.813
 1805SOL    HW1 5550   2.716   1.384   2.777
 1805SOL    HW2 5551   2.611   1.487   2.814
 1806SOL     OW 5552   2.763   0.489   2.745
 1806SOL    HW1 5553   2.820   0.564   2.762
 1806SOL    HW2 5554   2.682   0.511   2.791
 1807SOL     OW 5555   2.394   5.033   2.366
 1807SOL    HW1 5556   2.468   5.004   2.420
 1807SOL    HW2 5557   2.346   4.952   2.346
 1808SOL     OW 5558   3.265   1.150   1.929
 1808SOL    HW1 5559   3.189   1.208   1.941
 1808SOL    HW2 5560   3.339   1.210   1.922
 1809SOL     OW 5561   2.182   5.019   2.070
 1809SOL    HW1 5562   2.131   4.939   2.084
 1809SOL    HW2 5563   2.206   5.016   1.978
 1810SOL     OW 5564   2.819   0.211   2.302
 1810SOL    HW1 5565   2.785   0.274   2.366
 1810SOL    HW2 5566   2.914   0.220   2.307
 1811SOL     OW 5567   2.934   0.654   3.350
 1811SOL    HW1 5568   2.968   0.601   3.422
 1811SOL    HW2 5569   2.852   0.611   3.325
 1812SOL     OW 5570   3.180   1.602   2.654
 1812SOL    HW1 5571   3.122   1.532   2.683
 1812SOL    HW2 5572   3.122   1.666   2.613
 1813SOL     OW 5573   2.332   1.123   2.621
 1813SOL    HW1 5574   2.415   1.084   2.596
 1813SOL    HW2 5575   2.279   1.121   2.542
 1814SOL     OW 5576   3.086   1.831   2.487
 1814SOL    HW1 5577   3.138   1.893   2.538
 1814SOL    HW2 5578   3.121   1.839   2.398
 1815SOL     OW 5579   2.815   0.539   1.869
 1815SOL    HW1 5580   2.785   0.629   1.856
 1815SOL    HW2 5581   2.888   0.528   1.807
 1816SOL     OW 5582   1.895   0.583   3.268
 1816SOL    HW1 5583   1.853   0.633   3.198
 1816SOL    HW2 5584   1.975   0.548   3.228
 1817SOL     OW 5585   2.411   0.218   2.995
 1817SOL    HW1 5586   2.457   0.287   3.042
 1817SOL    HW2 5587   2.327   0.209   3.041
 1818SOL     OW 5588   2.750   0.411   2.471
 1818SOL    HW1 5589   2.746   0.446   2.560
 1818SOL    HW2 5590   2.720   0.483   2.416
 1819SOL     OW 5591   2.842   0.063   2.629
 1819SOL    HW1 5592   2.879   0.112   2.702
 1819SOL    HW2 5593   2.891  -0.019   2.627
 1820SOL     OW 5594   3.215   1.171   2.685
 1820SOL    HW1 5595   3.129   1.206   2.710
 1820SOL    HW2 5596   3.278   1.230   2.727
 1821SOL     OW 5597   3.327   0.587   2.858
 1821SOL    HW1 5598   3.261   0.518   2.852
 1821SOL    HW2 5599   3.336   0.619   2.769
 1822SOL     OW 5600   3.671   0.793   2.247
 1822SOL    HW1 5601   3.701   0.880   2.221
 1822SOL    HW2 5602   3.664   0.744   2.165
 1823SOL     OW 5603   2.361   1.371   2.037
 1823SOL    HW1 5604   2.431   1.338   2.094
 1823SOL    HW2 5605   2.280   1.352   2.084
 1824SOL     OW 5606   3.533   1.312   2.527
 1824SOL    HW1 5607   3.621   1.296   2.560
 1824SOL    HW2 5608   3.519   1.244   2.462
 1825SOL     OW 5609   3.292   0.543   1.956
 1825SOL    HW1 5610   3.336   0.603   2.016
 1825SOL    HW2 5611   3.335   0.459   1.971
 1826SOL     OW 5612   2.342   0.271   2.156
 1826SOL    HW1 5613   2.291   0.192   2.173
 1826SOL    HW2 5614   2.398   0.249   2.083
 1827SOL     OW 5615   3.611   1.217   3.428
 1827SOL    HW1 5616   3.531   1.234   3.478
 1827SOL    HW2 5617   3.612   1.121   3.417
 1828SOL     OW 5618   2.980   1.345   3.192
 1828SOL    HW1 5619   2.904   1.402   3.200
 1828SOL    HW2 5620   2.953   1.275   3.133
 1829SOL     OW 5621   3.435   1.594   3.447
 1829SOL    HW1 5622   3.526   1.566   3.453
 1829SOL    HW2 5623   3.408   1.612   3.537
 1830SOL     OW 5624   2.915   1.177   2.991
 1830SOL    HW1 5625   3.000   1.133   2.997
 1830SOL    HW2 5626   2.916   1.220   2.906
 1831SOL     OW 5627   3.519   1.096   2.923
 1831SOL    HW1 5628   3.523   1.019   2.980
 1831SOL    HW2 5629   3.436   1.088   2.877
 1832SOL     OW 5630   2.791   0.102   3.219
 1832SOL    HW1 5631   2.709   0.111   3.267
 1832SOL    HW2 5632   2.828   0.190   3.217
 1833SOL     OW 5633   2.843   1.095   3.594
 1833SOL    HW1 5634   2.756   1.123   3.623
 1833SOL    HW2 5635   2.827   1.036   3.521
 1834SOL     OW 5636   2.604   1.065   2.241
 1834SOL    HW1 5637   2.609   1.158   2.218
 1834SOL    HW2 5638   2.548   1.027   2.173
 1835SOL     OW 5639   2.241   0.746   3.182
 1835SOL    HW1 5640   2.326   0.784   3.203
 1835SOL    HW2 5641   2.183   0.821   3.168
 1836SOL     OW 5642   3.209   0.413   3.112
 1836SOL    HW1 5643   3.304   0.399   3.110
 1836SOL    HW2 5644   3.183   0.412   3.020
 1837SOL     OW 5645   1.923   1.577   3.228
 1837SOL    HW1 5646   2.017   1.578   3.242
 1837SOL    HW2 5647   1.905   1.493   3.186
 1838SOL     OW 5648   2.195   1.121   2.390
 1838SOL    HW1 5649   2.108   1.138   2.425
 1838SOL    HW2 5650   2.196   1.164   2.305
 1839SOL     OW 5651   2.433   0.483   2.647
 1839SOL    HW1 5652   2.372   0.500   2.720
 1839SOL    HW2 5653   2.457   0.391   2.658
 1840SOL     OW 5654   3.058   1.337   2.250
 1840SOL    HW1 5655   3.118   1.408   2.275
 1840SOL    HW2 5656   3.094   1.260   2.294
 1841SOL     OW 5657   3.164   1.471   3.017
 1841SOL    HW1 5658   3.228   1.481   3.087
 1841SOL    HW2 5659   3.093   1.420   3.056
 1842SOL     OW 5660   3.439   0.646   2.323
 1842SOL    HW1 5661   3.446   0.620   2.415
 1842SOL    HW2 5662   3.507   0.713   2.312
 1843SOL     OW 5663   2.191   1.538   3.240
 1843SOL    HW1 5664   2.211   1.452   3.278
 1843SOL    HW2 5665   2.195   1.524   3.145
 1844SOL     OW 5666   2.261   0.747   3.489
 1844SOL    HW1 5667   2.168   0.762   3.472
 1844SOL    HW2 5668   2.299   0.735   3.403
 1845SOL     OW 5669   3.436   0.789   3.550
 1845SOL    HW1 5670   3.360   0.778   3.607
 1845SOL    HW2 5671   3.502   0.731   3.586
 1846SOL     OW 5672   2.939   0.117   3.669
 1846SOL    HW1 5673   2.898   0.178   3.608
 1846SOL    HW2 5674   2.917   0.031   3.634
 1847SOL     OW 5675   2.387   0.002   3.597
 1847SOL    HW1 5676   2.378   0.078   3.655
 1847SOL    HW2 5677   2.318   0.015   3.531
 1848SOL     OW 5678   2.469   0.871   2.859
 1848SOL    HW1 5679   2.524   0.938   2.899
 1848SOL    HW2 5680   2.446   0.907   2.773
 1849SOL     OW 5681   3.296   0.862   2.927
 1849SOL    HW1 5682   3.356   0.845   3.000
 1849SOL    HW2 5683   3.284   0.777   2.885
 1850SOL     OW 5684   3.059   0.498   2.121
 1850SOL    HW1 5685   3.019   0.580   2.150
 1850SOL    HW2 5686   3.121   0.524   2.053
 1851SOL     OW 5687   2.168   0.224   3.137
 1851SOL    HW1 5688   2.145   0.214   3.229
 1851SOL    HW2 5689   2.087   0.209   3.090
 1852SOL     OW 5690   1.910   1.318   3.138
 1852SOL    HW1 5691   1.926   1.310   3.044
 1852SOL    HW2 5692   1.829   1.269   3.152
 1853SOL     OW 5693   2.602   0.638   2.957
 1853SOL    HW1 5694   2.675   0.683   2.999
 1853SOL    HW2 5695   2.548   0.708   2.920
 1854SOL     OW 5696   3.621   0.986   3.718
 1854SOL    HW1 5697   3.585   0.963   3.803
 1854SOL    HW2 5698   3.545   1.009   3.664
 1855SOL     OW 5699   2.123   0.051   2.500
 1855SOL    HW1 5700   2.128   0.136   2.544
 1855SOL    HW2 5701   2.201   0.048   2.444
 1856SOL     OW 5702   3.482   0.393   2.235
 1856SOL    HW1 5703   3.477   0.342   2.316
 1856SOL    HW2 5704   3.458   0.482   2.262
 1857SOL     OW 5705   2.895   0.719   2.814
 1857SOL    HW1 5706   2.897   0.735   2.909
 1857SOL    HW2 5707   2.844   0.792   2.779
 1858SOL     OW 5708   2.826   1.602   3.552
 1858SOL    HW1 5709   2.736   1.624   3.576
 1858SOL    HW2 5710   2.831   1.625   3.459
 1859SOL     OW 5711   3.692   1.499   3.434
 1859SOL    HW1 5712   3.768   1.515   3.490
 1859SOL    HW2 5713   3.680   1.404   3.437
 1860SOL     OW 5714   2.255   0.970   3.650
 1860SOL    HW1 5715   2.314   0.953   3.723
 1860SOL    HW2 5716   2.261   0.891   3.595
 1861SOL     OW 5717   3.414   0.302   1.990
 1861SOL    HW1 5718   3.446   0.317   2.079
 1861SOL    HW2 5719   3.362   0.222   1.996
 1862SOL     OW 5720   3.164   0.904   1.857
 1862SOL    HW1 5721   3.156   0.853   1.938
 1862SOL    HW2 5722   3.209   0.985   1.884
 1863SOL     OW 5723   2.150   0.756   2.836
 1863SOL    HW1 5724   2.102   0.832   2.804
 1863SOL    HW2 5725   2.240   0.787   2.845
 1864SOL     OW 5726   2.260   0.507   2.860
 1864SOL    HW1 5727   2.283   0.508   2.953
 1864SOL    HW2 5728   2.208   0.587   2.848
 1865SOL     OW 5729   3.005   0.443   3.519
 1865SOL    HW1 5730   3.098   0.441   3.542
 1865SOL    HW2 5731   2.992   0.363   3.467
 1866SOL     OW 5732   3.017   0.208   3.378
 1866SOL    HW1 5733   3.113   0.202   3.376
 1866SOL    HW2 5734   2.986   0.122   3.351
 1867SOL     OW 5735   1.882   1.327   2.059
 1867SOL    HW1 5736   1.791   1.312   2.035
 1867SOL    HW2 5737   1.893   1.422   2.054
 1868SOL     OW 5738   1.983   1.743   2.840
 1868SOL    HW1 5739   1.899   1.756   2.884
 1868SOL    HW2 5740   1.964   1.685   2.767
 1869SOL     OW 5741   2.350   1.602   2.754
 1869SOL    HW1 5742   2.319   1.672   2.697
 1869SOL    HW2 5743   2.373   1.531   2.694
 1870SOL     OW 5744   2.819   0.769   3.085
 1870SOL    HW1 5745   2.884   0.757   3.154
 1870SOL    HW2 5746   2.778   0.854   3.105
 1871SOL     OW 5747   1.926   0.610   2.962
 1871SOL    HW1 5748   1.993   0.564   3.015
 1871SOL    HW2 5749   1.977   0.662   2.900
 1872SOL     OW 5750   2.111   0.523   3.592
 1872SOL    HW1 5751   2.173   0.578   3.543
 1872SOL    HW2 5752   2.093   0.449   3.534
 1873SOL     OW 5753   3.125   1.001   3.512
 1873SOL    HW1 5754   3.039   1.027   3.545
 1873SOL    HW2 5755   3.143   1.064   3.442
 1874SOL     OW 5756   2.692   0.567   2.240
 1874SOL    HW1 5757   2.612   0.614   2.215
 1874SOL    HW2 5758   2.698   0.494   2.179
 1875SOL     OW 5759   3.559   0.600   3.013
 1875SOL    HW1 5760   3.553   0.691   3.043
 1875SOL    HW2 5761   3.481   0.587   2.959
 1876SOL     OW 5762   2.074   1.547   3.619
 1876SOL    HW1 5763   2.133   1.619   3.599
 1876SOL    HW2 5764   2.048   1.562   3.709
 1877SOL     OW 5765   2.491   0.450   3.134
 1877SOL    HW1 5766   2.559   0.455   3.201
 1877SOL    HW2 5767   2.519   0.512   3.067
 1878SOL     OW 5768   2.828   1.681   3.289
 1878SOL    HW1 5769   2.923   1.667   3.290
 1878SOL    HW2 5770   2.796   1.624   3.221
 1879SOL     OW 5771   2.286   0.517   2.039
 1879SOL    HW1 5772   2.294   0.432   2.081
 1879SOL    HW2 5773   2.358   0.569   2.075
 1880SOL     OW 5774   2.017   1.121   3.371
 1880SOL    HW1 5775   1.936   1.171   3.359
 1880SOL    HW2 5776   2.026   1.071   3.290
 1881SOL     OW 5777   3.174   1.091   3.010
 1881SOL    HW1 5778   3.256   1.136   3.028
 1881SOL    HW2 5779   3.200   1.005   2.976
 1882SOL     OW 5780   3.132   0.808   2.114
 1882SOL    HW1 5781   3.209   0.831   2.167
 1882SOL    HW2 5782   3.064   0.788   2.178
 1883SOL     OW 5783   3.682   1.760   2.993
 1883SOL    HW1 5784   3.715   1.711   3.068
 1883SOL    HW2 5785   3.679   1.851   3.024
 1884SOL     OW 5786   3.109   1.741   3.022
 1884SOL    HW1 5787   3.188   1.777   2.980
 1884SOL    HW2 5788   3.115   1.647   3.006
 1885SOL     OW 5789   1.896   1.289   2.861
 1885SOL    HW1 5790   1.854   1.214   2.820
 1885SOL    HW2 5791   1.981   1.297   2.817
 1886SOL     OW 5792   2.555   1.668   3.550
 1886SOL    HW1 5793   2.475   1.681   3.601
 1886SOL    HW2 5794   2.548   1.578   3.518
 1887SOL     OW 5795   3.624   0.102   2.339
 1887SOL    HW1 5796   3.667   0.183   2.368
 1887SOL    HW2 5797   3.631   0.105   2.243
 1888SOL     OW 5798   3.244   1.511   2.350
 1888SOL    HW1 5799   3.308   1.560   2.299
 1888SOL    HW2 5800   3.211   1.574   2.414
 1889SOL     OW 5801   1.999   1.857   3.712
 1889SOL    HW1 5802   2.042   1.853   3.798
 1889SOL    HW2 5803   2.024   1.943   3.678
 1890SOL     OW 5804   3.150   0.939   2.551
 1890SOL    HW1 5805   3.176   1.005   2.615
 1890SOL    HW2 5806   3.192   0.967   2.469
 1891SOL     OW 5807   2.667   1.272   3.271
 1891SOL    HW1 5808   2.626   1.309   3.349
 1891SOL    HW2 5809   2.685   1.347   3.215
 1892SOL     OW 5810   2.509   1.588   1.964
 1892SOL    HW1 5811   2.445   1.519   1.982
 1892SOL    HW2 5812   2.593   1.543   1.961
 1893SOL     OW 5813   3.497   1.771   3.237
 1893SOL    HW1 5814   3.459   1.747   3.153
 1893SOL    HW2 5815   3.467   1.704   3.298
 1894SOL     OW 5816   3.672   0.156   2.795
 1894SOL    HW1 5817   3.738   0.216   2.761
 1894SOL    HW2 5818   3.667   0.176   2.889
 1895SOL     OW 5819   2.169   0.297   2.607
 1895SOL    HW1 5820   2.255   0.282   2.648
 1895SOL    HW2 5821   2.189   0.351   2.530
 1896SOL     OW 5822   3.091   1.577   1.880
 1896SOL    HW1 5823   3.079   1.488   1.913
 1896SOL    HW2 5824   3.036   1.581   1.802
 1897SOL     OW 5825   2.697   1.001   3.202
 1897SOL    HW1 5826   2.737   0.971   3.284
 1897SOL    HW2 5827   2.690   1.096   3.212
 1898SOL     OW 5828   2.782   0.892   2.104
 1898SOL    HW1 5829   2.728   0.947   2.162
 1898SOL    HW2 5830   2.821   0.827   2.163
 1899SOL     OW 5831   3.371   1.620   1.912
 1899SOL    HW1 5832   3.358   1.715   1.922
 1899SOL    HW2 5833   3.283   1.585   1.900
 1900SOL     OW 5834   2.232   1.297   3.352
 1900SOL    HW1 5835   2.280   1.276   3.432
 1900SOL    HW2 5836   2.157   1.237   3.352
 1901SOL     OW 5837   3.477   1.267   3.167
 1901SOL    HW1 5838   3.553   1.263   3.224
 1901SOL    HW2 5839   3.507   1.232   3.083
 1902SOL     OW 5840   2.881   1.071   2.535
 1902SOL    HW1 5841   2.890   1.159   2.572
 1902SOL    HW2 5842   2.970   1.037   2.532
 1903SOL     OW 5843   2.881   0.258   2.859
 1903SOL    HW1 5844   2.857   0.292   2.946
 1903SOL    HW2 5845   2.834   0.314   2.798
 1904SOL     OW 5846   2.449   1.508   2.342
 1904SOL    HW1 5847   2.443   1.465   2.427
 1904SOL    HW2 5848   2.502   1.449   2.289
 1905SOL     OW 5849   3.491   0.362   3.212
 1905SOL    HW1 5850   3.530   0.449   3.223
 1905SOL    HW2 5851   3.558   0.311   3.166
 1906SOL     OW 5852   2.135   1.314   2.188
 1906SOL    HW1 5853   2.123   1.370   2.265
 1906SOL    HW2 5854   2.050   1.313   2.145
 1907SOL     OW 5855   1.982   1.045   3.636
 1907SOL    HW1 5856   2.064   0.999   3.651
 1907SOL    HW2 5857   1.986   1.071   3.544
 1908SOL     OW 5858   2.567   0.158   3.368
 1908SOL    HW1 5859   2.589   0.207   3.448
 1908SOL    HW2 5860   2.481   0.121   3.386
 1909SOL     OW 5861   1.900   0.311   1.947
 1909SOL    HW1 5862   1.850   0.387   1.918
 1909SOL    HW2 5863   1.973   0.306   1.884
 1910SOL     OW 5864   3.313   0.846   3.265
 1910SOL    HW1 5865   3.281   0.893   3.343
 1910SOL    HW2 5866   3.290   0.755   3.281
 1911SOL     OW 5867   1.945   0.244   2.241
 1911SOL    HW1 5868   1.930   0.290   2.159
 1911SOL    HW2 5869   1.976   0.158   2.215
 1912SOL     OW 5870   3.044   1.319   1.979
 1912SOL    HW1 5871   3.044   1.332   2.074
 1912SOL    HW2 5872   2.996   1.238   1.966
 1913SOL     OW 5873   2.476   0.844   3.288
 1913SOL    HW1 5874   2.508   0.852   3.378
 1913SOL    HW2 5875   2.536   0.900   3.237
 1914SOL     OW 5876   3.338   1.750   2.866
 1914SOL    HW1 5877   3.403   1.805   2.822
 1914SOL    HW2 5878   3.303   1.694   2.797
 1915SOL     OW 5879   2.531   0.572   3.547
 1915SOL    HW1 5880   2.437   0.587   3.537
 1915SOL    HW2 5881   2.561   0.645   3.601
 1916SOL     OW 5882   3.350   1.236   3.535
 1916SOL    HW1 5883   3.306   1.317   3.559
 1916SOL    HW2 5884   3.297   1.200   3.464
 1917SOL     OW 5885   2.201   1.765   3.394
 1917SOL    HW1 5886   2.231   1.821   3.323
 1917SOL    HW2 5887   2.205   1.677   3.359
 1918SOL     OW 5888   3.525   0.882   3.109
 1918SOL    HW1 5889   3.598   0.901   3.168
 1918SOL    HW2 5890   3.449   0.873   3.166
 1919SOL     OW 5891   3.087   0.313   2.313
 1919SOL    HW1 5892   3.135   0.363   2.379
 1919SOL    HW2 5893   3.075   0.374   2.240
 1920SOL     OW 5894   2.458   0.735   2.539
 1920SOL    HW1 5895   2.528   0.763   2.597
 1920SOL    HW2 5896   2.442   0.644   2.563
 1921SOL     OW 5897   3.642   0.379   3.536
 1921SOL    HW1 5898   3.563   0.329   3.517
 1921SOL    HW2 5899   3.673   0.408   3.450
 1922SOL     OW 5900   3.610   0.936   3.391
 1922SOL    HW1 5901   3.537   0.891   3.434
 1922SOL    HW2 5902   3.685   0.877   3.403
 1923SOL     OW 5903   2.715   1.393   1.889
 1923SOL    HW1 5904   2.760   1.464   1.843
 1923SOL    HW2 5905   2.761   1.314   1.862
 1924SOL     OW 5906   2.523   1.821   2.868
 1924SOL    HW1 5907   2.608   1.789   2.838
 1924SOL    HW2 5908   2.472   1.742   2.884
 1925SOL     OW 5909   2.749   0.923   2.725
 1925SOL    HW1 5910   2.709   0.990   2.780
 1925SOL    HW2 5911   2.775   0.969   2.646
 1926SOL     OW 5912   2.947   1.062   1.965
 1926SOL    HW1 5913   2.888   1.007   2.016
 1926SOL    HW2 5914   3.005   0.999   1.920
 1927SOL     OW 5915   3.731   1.514   2.704
 1927SOL    HW1 5916   3.641   1.536   2.682
 1927SOL    HW2 5917   3.775   1.599   2.709
 1928SOL     OW 5918   2.102   1.267   3.756
 1928SOL    HW1 5919   2.033   1.330   3.779
 1928SOL    HW2 5920   2.055   1.191   3.721
 1929SOL     OW 5921   1.969   1.229   2.493
 1929SOL    HW1 5922   1.998   1.316   2.468
 1929SOL    HW2 5923   1.874   1.238   2.506
 1930SOL     OW 5924   2.560   1.394   3.511
 1930SOL    HW1 5925   2.622   1.388   3.584
 1930SOL    HW2 5926   2.483   1.346   3.541
 1931SOL     OW 5927   3.695   0.216   3.086
 1931SOL    HW1 5928   3.766   0.173   3.134
 1931SOL    HW2 5929   3.730   0.301   3.062
 1932SOL     OW 5930   2.279   0.435   2.397
 1932SOL    HW1 5931   2.363   0.448   2.441
 1932SOL    HW2 5932   2.300   0.385   2.318
 1933SOL     OW 5933   3.530   1.517   2.959
 1933SOL    HW1 5934   3.474   1.529   3.036
 1933SOL    HW2 5935   3.576   1.600   2.950
 1934SOL     OW 5936   2.118   0.506   3.125
 1934SOL    HW1 5937   2.176   0.576   3.157
 1934SOL    HW2 5938   2.163   0.425   3.150
 1935SOL     OW 5939   2.706   1.563   2.570
 1935SOL    HW1 5940   2.669   1.565   2.481
 1935SOL    HW2 5941   2.775   1.497   2.566
 1936SOL     OW 5942   3.317   0.169   2.978
 1936SOL    HW1 5943   3.369   0.125   3.045
 1936SOL    HW2 5944   3.242   0.205   3.026
 1937SOL     OW 5945   2.862  -0.000   2.977
 1937SOL    HW1 5946   2.844   0.026   3.067
 1937SOL    HW2 5947   2.880   0.082   2.931
 1938SOL     OW 5948   2.617   1.337   2.158
 1938SOL    HW1 5949   2.686   1.379   2.209
 1938SOL    HW2 5950   2.647   1.342   2.067
 1939SOL     OW 5951   2.499   1.580   3.071
 1939SOL    HW1 5952   2.416   1.533   3.072
 1939SOL    HW2 5953   2.488   1.649   3.136
 1940SOL     OW 5954   3.234   0.085   2.006
 1940SOL    HW1 5955   3.145   0.107   1.980
 1940SOL    HW2 5956   3.261   0.016   1.946
 1941SOL     OW 5957   3.157   0.461   2.540
 1941SOL    HW1 5958   3.146   0.555   2.548
 1941SOL    HW2 5959   3.069   0.425   2.548
 1942SOL     OW 5960   3.416   0.247   2.736
 1942SOL    HW1 5961   3.504   0.208   2.738
 1942SOL    HW2 5962   3.377   0.221   2.819
 1943SOL     OW 5963   1.926   1.052   2.158
 1943SOL    HW1 5964   2.012   1.030   2.125
 1943SOL    HW2 5965   1.909   1.140   2.125
 1944SOL     OW 5966   2.083   0.585   3.851
 1944SOL    HW1 5967   2.093   0.679   3.870
 1944SOL    HW2 5968   2.090   0.580   3.755
 1945SOL     OW 5969   2.090   0.290   4.757
 1945SOL    HW1 5970   2.027   0.358   4.781
 1945SOL    HW2 5971   2.100   0.300   4.662
 1946SOL     OW 5972   1.895   0.405   4.353
 1946SOL    HW1 5973   1.807   0.419   4.390
 1946SOL    HW2 5974   1.886   0.326   4.300
 1947SOL     OW 5975   2.397   1.233   4.913
 1947SOL    HW1 5976   2.404   1.308   4.973
 1947SOL    HW2 5977   2.331   1.261   4.849
 1948SOL     OW 5978   3.493   1.552   4.436
 1948SOL    HW1 5979   3.578   1.548   4.480
 1948SOL    HW2 5980   3.430   1.531   4.505
 1949SOL     OW 5981   2.976   0.701   4.416
 1949SOL    HW1 5982   3.041   0.631   4.422
 1949SOL    HW2 5983   3.028   0.782   4.421
 1950SOL     OW 5984   3.683   0.569   3.920
 1950SOL    HW1 5985   3.681   0.650   3.971
 1950SOL    HW2 5986   3.629   0.508   3.971
 1951SOL     OW 5987   2.559   1.159   4.689
 1951SOL    HW1 5988   2.517   1.144   4.774
 1951SOL    HW2 5989   2.595   1.247   4.695
 1952SOL     OW 5990   2.519   0.967   4.355
 1952SOL    HW1 5991   2.594   0.983   4.413
 1952SOL    HW2 5992   2.507   0.872   4.359
 1953SOL     OW 5993   2.209   1.444   4.781
 1953SOL    HW1 5994   2.164   1.502   4.842
 1953SOL    HW2 5995   2.140   1.387   4.747
 1954SOL     OW 5996   3.470   0.388   4.473
 1954SOL    HW1 5997   3.542   0.411   4.415
 1954SOL    HW2 5998   3.450   0.468   4.521
 1955SOL     OW 5999   2.085   1.677   4.221
 1955SOL    HW1 6000   2.140   1.754   4.231
 1955SOL    HW2 6001   2.008   1.708   4.173
 1956SOL     OW 6002   2.045   1.420   4.327
 1956SOL    HW1 6003   2.088   1.505   4.339
 1956SOL    HW2 6004   2.050   1.404   4.233
 1957SOL     OW 6005   2.071   1.061   4.604
 1957SOL    HW1 6006   2.045   1.139   4.653
 1957SOL    HW2 6007   2.154   1.087   4.562
 1958SOL     OW 6008   2.427   0.945   3.865
 1958SOL    HW1 6009   2.456   0.997   3.940
 1958SOL    HW2 6010   2.447   0.855   3.889
 1959SOL     OW 6011   2.031   0.615   4.250
 1959SOL    HW1 6012   1.961   0.670   4.214
 1959SOL    HW2 6013   1.985   0.539   4.286
 1960SOL     OW 6014   3.711   1.808   4.086
 1960SOL    HW1 6015   3.787   1.760   4.118
 1960SOL    HW2 6016   3.643   1.793   4.152
 1961SOL     OW 6017   1.963   1.622   3.860
 1961SOL    HW1 6018   1.922   1.648   3.942
 1961SOL    HW2 6019   1.939   1.692   3.798
 1962SOL     OW 6020   3.538   0.898   4.294
 1962SOL    HW1 6021   3.615   0.886   4.349
 1962SOL    HW2 6022   3.468   0.850   4.339
 1963SOL     OW 6023   3.493   1.134   4.154
 1963SOL    HW1 6024   3.518   1.056   4.203
 1963SOL    HW2 6025   3.399   1.143   4.169
 1964SOL     OW 6026   2.462   1.410   4.467
 1964SOL    HW1 6027   2.408   1.332   4.458
 1964SOL    HW2 6028   2.489   1.430   4.377
 1965SOL     OW 6029   2.711   4.949   4.245
 1965SOL    HW1 6030   2.731   5.042   4.236
 1965SOL    HW2 6031   2.783   4.915   4.298
 1966SOL     OW 6032   2.062   0.984   0.026
 1966SOL    HW1 6033   2.129   0.935   0.072
 1966SOL    HW2 6034   2.021   0.921  -0.032
 1967SOL     OW 6035   3.445   0.984   3.928
 1967SOL    HW1 6036   3.469   1.034   4.006
 1967SOL    HW2 6037   3.379   1.038   3.884
 1968SOL     OW 6038   3.320   1.488   4.647
 1968SOL    HW1 6039   3.397   1.483   4.703
 1968SOL    HW2 6040   3.255   1.431   4.689
 1969SOL     OW 6041   3.509   1.760   4.261
 1969SOL    HW1 6042   3.508   1.685   4.320
 1969SOL    HW2 6043   3.417   1.775   4.239
 1970SOL     OW 6044   2.467   0.693   3.971
 1970SOL    HW1 6045   2.412   0.710   4.047
 1970SOL    HW2 6046   2.434   0.610   3.936
 1971SOL     OW 6047   3.154   0.377   4.670
 1971SOL    HW1 6048   3.061   0.361   4.686
 1971SOL    HW2 6049   3.199   0.313   4.724
 1972SOL     OW 6050   3.418   1.723   3.967
 1972SOL    HW1 6051   3.503   1.738   4.008
 1972SOL    HW2 6052   3.367   1.676   4.033
 1973SOL     OW 6053   2.927   0.716   4.147
 1973SOL    HW1 6054   2.935   0.715   4.242
 1973SOL    HW2 6055   3.003   0.766   4.117
 1974SOL     OW 6056   1.924   0.799   4.437
 1974SOL    HW1 6057   1.937   0.815   4.531
 1974SOL    HW2 6058   1.993   0.737   4.413
 1975SOL     OW 6059   2.661   0.339   3.865
 1975SOL    HW1 6060   2.691   0.265   3.918
 1975SOL    HW2 6061   2.684   0.416   3.917
 1976SOL     OW 6062   3.234   1.133   4.240
 1976SOL    HW1 6063   3.250   1.139   4.335
 1976SOL    HW2 6064   3.179   1.055   4.231
 1977SOL     OW 6065   2.408   0.154   4.507
 1977SOL    HW1 6066   2.438   0.244   4.518
 1977SOL    HW2 6067   2.322   0.152   4.548
 1978SOL     OW 6068   2.857   1.349   4.257
 1978SOL    HW1 6069   2.941   1.390   4.237
 1978SOL    HW2 6070   2.808   1.416   4.303
 1979SOL     OW 6071   2.197   1.839   4.619
 1979SOL    HW1 6072   2.258   1.765   4.615
 1979SOL    HW2 6073   2.211   1.886   4.537
 1980SOL     OW 6074   3.630   1.027   4.633
 1980SOL    HW1 6075   3.718   1.059   4.652
 1980SOL    HW2 6076   3.643   0.957   4.568
 1981SOL     OW 6077   2.161   0.943   3.984
 1981SOL    HW1 6078   2.177   0.994   4.063
 1981SOL    HW2 6079   2.237   0.960   3.928
 1982SOL     OW 6080   3.365   0.695   4.418
 1982SOL    HW1 6081   3.387   0.681   4.510
 1982SOL    HW2 6082   3.283   0.647   4.406
 1983SOL     OW 6083   2.961   1.767   3.944
 1983SOL    HW1 6084   3.038   1.818   3.966
 1983SOL    HW2 6085   2.992   1.704   3.879
 1984SOL     OW 6086   3.500   1.373   3.794
 1984SOL    HW1 6087   3.576   1.336   3.840
 1984SOL    HW2 6088   3.432   1.307   3.803
 1985SOL     OW 6089   2.395   1.735   4.034
 1985SOL    HW1 6090   2.441   1.665   3.988
 1985SOL    HW2 6091   2.398   1.810   3.974
 1986SOL     OW 6092   3.280   0.183   4.137
 1986SOL    HW1 6093   3.336   0.123   4.186
 1986SOL    HW2 6094   3.257   0.135   4.058
 1987SOL     OW 6095   2.049   1.788   4.893
 1987SOL    HW1 6096   2.069   1.802   4.986
 1987SOL    HW2 6097   2.130   1.812   4.848
 1988SOL     OW 6098   2.804   1.701   4.644
 1988SOL    HW1 6099   2.716   1.737   4.638
 1988SOL    HW2 6100   2.792   1.612   4.676
 1989SOL     OW 6101   2.256   0.715   4.148
 1989SOL    HW1 6102   2.230   0.803   4.121
 1989SOL    HW2 6103   2.178   0.678   4.189
 1990SOL     OW 6104   2.388   0.197   3.802
 1990SOL    HW1 6105   2.477   0.197   3.837
 1990SOL    HW2 6106   2.341   0.133   3.856
 1991SOL     OW 6107   2.649   1.427   4.687
 1991SOL    HW1 6108   2.730   1.396   4.646
 1991SOL    HW2 6109   2.588   1.438   4.614
 1992SOL     OW 6110   2.766   0.516   4.640
 1992SOL    HW1 6111   2.815   0.595   4.659
 1992SOL    HW2 6112   2.757   0.515   4.545
 1993SOL     OW 6113   2.413   0.044   4.212
 1993SOL    HW1 6114   2.426   0.071   4.303
 1993SOL    HW2 6115   2.397   0.125   4.165
 1994SOL     OW 6116   3.295   1.181   3.806
 1994SOL    HW1 6117   3.206   1.207   3.831
 1994SOL    HW2 6118   3.294   1.179   3.711
 1995SOL     OW 6119   2.182   0.016   3.875
 1995SOL    HW1 6120   2.100   0.055   3.904
 1995SOL    HW2 6121   2.159  -0.034   3.797
 1996SOL     OW 6122   2.801   0.239   4.263
 1996SOL    HW1 6123   2.884   0.270   4.228
 1996SOL    HW2 6124   2.823   0.206   4.350
 1997SOL     OW 6125   3.086   1.544   4.479
 1997SOL    HW1 6126   3.164   1.537   4.534
 1997SOL    HW2 6127   3.095   1.628   4.435
 1998SOL     OW 6128   2.337   1.129   4.502
 1998SOL    HW1 6129   2.401   1.145   4.571
 1998SOL    HW2 6130   2.374   1.058   4.450
 1999SOL     OW 6131   3.116   1.789   4.337
 1999SOL    HW1 6132   3.039   1.834   4.371
 1999SOL    HW2 6133   3.169   1.859   4.297
 2000SOL     OW 6134   2.856   0.577   3.709
 2000SOL    HW1 6135   2.852   0.527   3.791
 2000SOL    HW2 6136   2.909   0.524   3.651
 2001SOL     OW 6137   2.725   0.502   4.367
 2001SOL    HW1 6138   2.793   0.553   4.322
 2001SOL    HW2 6139   2.724   0.418   4.321
 2002SOL     OW 6140   2.857   0.107   4.497
 2002SOL    HW1 6141   2.934   0.052   4.480
 2002SOL    HW2 6142   2.787   0.044   4.514
 2003SOL     OW 6143   3.326   1.122   4.505
 2003SOL    HW1 6144   3.357   1.093   4.591
 2003SOL    HW2 6145   3.392   1.184   4.474
 2004SOL     OW 6146   3.374   0.576   4.670
 2004SOL    HW1 6147   3.423   0.570   4.752
 2004SOL    HW2 6148   3.296   0.522   4.684
 2005SOL     OW 6149   3.681   0.790   4.074
 2005SOL    HW1 6150   3.616   0.819   4.138
 2005SOL    HW2 6151   3.728   0.870   4.049
 2006SOL     OW 6152   2.313   1.348   3.927
 2006SOL    HW1 6153   2.254   1.312   3.861
 2006SOL    HW2 6154   2.394   1.366   3.879
 2007SOL     OW 6155   3.519   1.281   4.387
 2007SOL    HW1 6156   3.506   1.375   4.388
 2007SOL    HW2 6157   3.510   1.257   4.294
 2008SOL     OW 6158   3.284   0.545   3.771
 2008SOL    HW1 6159   3.355   0.584   3.823
 2008SOL    HW2 6160   3.212   0.534   3.834
 2009SOL     OW 6161   2.423   0.291   4.098
 2009SOL    HW1 6162   2.511   0.274   4.067
 2009SOL    HW2 6163   2.386   0.351   4.033
 2010SOL     OW 6164   2.991   1.182   4.765
 2010SOL    HW1 6165   3.029   1.264   4.797
 2010SOL    HW2 6166   3.052   1.115   4.796
 2011SOL     OW 6167   3.482   1.160   4.826
 2011SOL    HW1 6168   3.401   1.111   4.842
 2011SOL    HW2 6169   3.528   1.108   4.760
 2012SOL     OW 6170   2.535   1.054   4.089
 2012SOL    HW1 6171   2.520   1.035   4.182
 2012SOL    HW2 6172   2.618   1.011   4.068
 2013SOL     OW 6173   2.271   0.728   4.968
 2013SOL    HW1 6174   2.332   0.798   4.943
 2013SOL    HW2 6175   2.253   0.681   4.887
 2014SOL     OW 6176   2.185   1.076   4.213
 2014SOL    HW1 6177   2.258   1.119   4.258
 2014SOL    HW2 6178   2.107   1.100   4.263
 2015SOL     OW 6179   2.437   0.497   4.597
 2015SOL    HW1 6180   2.529   0.483   4.573
 2015SOL    HW2 6181   2.399   0.541   4.521
 2016SOL     OW 6182   3.148   1.366   4.118
 2016SOL    HW1 6183   3.176   1.288   4.166
 2016SOL    HW2 6184   3.115   1.332   4.034
 2017SOL     OW 6185   3.123   1.406   4.857
 2017SOL    HW1 6186   3.105   1.378   4.947
 2017SOL    HW2 6187   3.113   1.501   4.860
 2018SOL     OW 6188   3.349   0.633   4.146
 2018SOL    HW1 6189   3.369   0.663   4.235
 2018SOL    HW2 6190   3.400   0.553   4.135
 2019SOL     OW 6191   2.438   0.886   4.812
 2019SOL    HW1 6192   2.386   0.883   4.732
 2019SOL    HW2 6193   2.496   0.810   4.806
 2020SOL     OW 6194   3.153   0.791   4.733
 2020SOL    HW1 6195   3.242   0.782   4.699
 2020SOL    HW2 6196   3.163   0.793   4.828
 2021SOL     OW 6197   3.124   0.533   4.012
 2021SOL    HW1 6198   3.199   0.571   4.058
 2021SOL    HW2 6199   3.054   0.597   4.021
 2022SOL     OW 6200   2.168   0.159   4.983
 2022SOL    HW1 6201   2.263   0.158   4.991
 2022SOL    HW2 6202   2.152   0.205   4.901
 2023SOL     OW 6203   1.846   1.272   4.963
 2023SOL    HW1 6204   1.846   1.270   5.059
 2023SOL    HW2 6205   1.826   1.363   4.942
 2024SOL     OW 6206   2.559   0.631   4.808
 2024SOL    HW1 6207   2.501   0.590   4.745
 2024SOL    HW2 6208   2.647   0.605   4.780
 2025SOL     OW 6209   2.116   0.106   4.292
 2025SOL    HW1 6210   2.075   0.143   4.214
 2025SOL    HW2 6211   2.161   0.028   4.261
 2026SOL     OW 6212   3.477   0.389   4.117
 2026SOL    HW1 6213   3.547   0.374   4.180
 2026SOL    HW2 6214   3.410   0.324   4.139
 2027SOL     OW 6215   2.889   0.766   4.673
 2027SOL    HW1 6216   2.977   0.782   4.708
 2027SOL    HW2 6217   2.902   0.756   4.578
 2028SOL     OW 6218   3.457   0.254   3.867
 2028SOL    HW1 6219   3.473   0.303   3.947
 2028SOL    HW2 6220   3.379   0.201   3.885
 2029SOL     OW 6221   3.168   0.866   3.763
 2029SOL    HW1 6222   3.084   0.900   3.795
 2029SOL    HW2 6223   3.176   0.901   3.675
 2030SOL     OW 6224   2.874   1.338   4.579
 2030SOL    HW1 6225   2.912   1.272   4.636
 2030SOL    HW2 6226   2.947   1.372   4.528
 2031SOL     OW 6227   2.243   0.837   4.621
 2031SOL    HW1 6228   2.171   0.899   4.624
 2031SOL    HW2 6229   2.209   0.758   4.661
 2032SOL     OW 6230   2.203   0.592   4.746
 2032SOL    HW1 6231   2.265   0.530   4.706
 2032SOL    HW2 6232   2.128   0.538   4.772
 2033SOL     OW 6233   2.983   0.218   0.224
 2033SOL    HW1 6234   2.975   0.208   0.318
 2033SOL    HW2 6235   3.021   0.305   0.212
 2034SOL     OW 6236   1.852   1.310   3.914
 2034SOL    HW1 6237   1.914   1.363   3.963
 2034SOL    HW2 6238   1.866   1.220   3.945
 2035SOL     OW 6239   1.941   1.760   4.623
 2035SOL    HW1 6240   1.927   1.762   4.718
 2035SOL    HW2 6241   2.032   1.785   4.611
 2036SOL     OW 6242   2.355   1.614   4.615
 2036SOL    HW1 6243   2.312   1.558   4.679
 2036SOL    HW2 6244   2.397   1.553   4.554
 2037SOL     OW 6245   2.825   0.807   4.990
 2037SOL    HW1 6246   2.821   0.817   4.895
 2037SOL    HW2 6247   2.826   0.712   5.005
 2038SOL     OW 6248   1.948   0.509   4.855
 2038SOL    HW1 6249   1.978   0.550   4.936
 2038SOL    HW2 6250   1.854   0.528   4.851
 2039SOL     OW 6251   2.725   0.571   4.005
 2039SOL    HW1 6252   2.790   0.624   4.051
 2039SOL    HW2 6253   2.648   0.628   4.000
 2040SOL     OW 6254   3.524   0.566   4.905
 2040SOL    HW1 6255   3.520   0.653   4.943
 2040SOL    HW2 6256   3.553   0.509   4.976
 2041SOL     OW 6257   2.513   0.410  -0.006
 2041SOL    HW1 6258   2.450   0.447   0.057
 2041SOL    HW2 6259   2.546   0.487  -0.053
 2042SOL     OW 6260   2.331   0.462   3.905
 2042SOL    HW1 6261   2.242   0.496   3.894
 2042SOL    HW2 6262   2.341   0.397   3.836
 2043SOL     OW 6263   1.984   1.111   0.252
 2043SOL    HW1 6264   2.030   1.194   0.261
 2043SOL    HW2 6265   2.016   1.075   0.170
 2044SOL     OW 6266   3.191   1.062   4.913
 2044SOL    HW1 6267   3.235   1.127   4.968
 2044SOL    HW2 6268   3.118   1.031   4.966
 2045SOL     OW 6269   3.160   0.826   4.052
 2045SOL    HW1 6270   3.241   0.790   4.089
 2045SOL    HW2 6271   3.181   0.847   3.961
 2046SOL     OW 6272   3.672   1.723   4.826
 2046SOL    HW1 6273   3.643   1.762   4.908
 2046SOL    HW2 6274   3.618   1.645   4.815
 2047SOL     OW 6275   1.986   1.295   4.722
 2047SOL    HW1 6276   1.940   1.281   4.805
 2047SOL    HW2 6277   1.932   1.358   4.675
 2048SOL     OW 6278   3.517   0.089   4.260
 2048SOL    HW1 6279   3.513   0.139   4.341
 2048SOL    HW2 6280   3.603   0.047   4.263
 2049SOL     OW 6281   3.255   1.618   4.157
 2049SOL    HW1 6282   3.196   1.658   4.221
 2049SOL    HW2 6283   3.221   1.529   4.144
 2050SOL     OW 6284   3.112   0.933   4.423
 2050SOL    HW1 6285   3.175   0.983   4.476
 2050SOL    HW2 6286   3.040   0.995   4.407
 2051SOL     OW 6287   2.554   1.596   3.856
 2051SOL    HW1 6288   2.616   1.603   3.928
 2051SOL    HW2 6289   2.582   1.663   3.794
 2052SOL     OW 6290   3.569   1.813   0.069
 2052SOL    HW1 6291   3.597   1.793   0.158
 2052SOL    HW2 6292   3.489   1.763   0.056
 2053SOL     OW 6293   3.702   0.182   4.660
 2053SOL    HW1 6294   3.685   0.202   4.752
 2053SOL    HW2 6295   3.724   0.267   4.621
 2054SOL     OW 6296   2.113   0.295   4.489
 2054SOL    HW1 6297   2.053   0.357   4.448
 2054SOL    HW2 6298   2.128   0.228   4.422
 2055SOL     OW 6299   3.034   1.618   3.719
 2055SOL    HW1 6300   3.082   1.686   3.671
 2055SOL    HW2 6301   2.950   1.611   3.674
 2056SOL     OW 6302   2.703   1.122   0.070
 2056SOL    HW1 6303   2.763   1.054   0.040
 2056SOL    HW2 6304   2.618   1.078   0.076
 2057SOL     OW 6305   2.762   0.928   4.017
 2057SOL    HW1 6306   2.813   0.891   4.089
 2057SOL    HW2 6307   2.828   0.954   3.952
 2058SOL     OW 6308   3.397   1.611   3.716
 2058SOL    HW1 6309   3.398   1.660   3.798
 2058SOL    HW2 6310   3.430   1.524   3.739
 2059SOL     OW 6311   2.909   1.099   4.372
 2059SOL    HW1 6312   2.839   1.077   4.433
 2059SOL    HW2 6313   2.884   1.185   4.337
 2060SOL     OW 6314   2.883   0.272   4.714
 2060SOL    HW1 6315   2.830   0.350   4.699
 2060SOL    HW2 6316   2.875   0.222   4.633
 2061SOL     OW 6317   2.413   1.451   4.177
 2061SOL    HW1 6318   2.394   1.543   4.158
 2061SOL    HW2 6319   2.390   1.406   4.096
 2062SOL     OW 6320   3.629   0.405   0.110
 2062SOL    HW1 6321   3.679   0.374   0.185
 2062SOL    HW2 6322   3.546   0.356   0.115
 2063SOL     OW 6323   2.074   1.409   4.052
 2063SOL    HW1 6324   2.160   1.379   4.023
 2063SOL    HW2 6325   2.076   1.504   4.037
 2064SOL     OW 6326   1.993   0.320   3.829
 2064SOL    HW1 6327   2.011   0.414   3.830
 2064SOL    HW2 6328   1.909   0.312   3.782
 2065SOL     OW 6329   1.967   0.204   4.083
 2065SOL    HW1 6330   1.900   0.143   4.051
 2065SOL    HW2 6331   1.990   0.258   4.007
 2066SOL     OW 6332   3.027   1.272   3.878
 2066SOL    HW1 6333   2.946   1.310   3.911
 2066SOL    HW2 6334   3.035   1.305   3.789
 2067SOL     OW 6335   3.320   1.790   4.695
 2067SOL    HW1 6336   3.382   1.829   4.634
 2067SOL    HW2 6337   3.329   1.695   4.681
 2068SOL     OW 6338   3.530   0.803   0.035
 2068SOL    HW1 6339   3.602   0.866   0.036
 2068SOL    HW2 6340   3.455   0.851   0.071
 2069SOL     OW 6341   3.057   0.333   4.193
 2069SOL    HW1 6342   3.129   0.272   4.182
 2069SOL    HW2 6343   3.067   0.397   4.123
 2070SOL     OW 6344   2.518   0.693   4.370
 2070SOL    HW1 6345   2.595   0.636   4.370
 2070SOL    HW2 6346   2.448   0.638   4.334
 2071SOL     OW 6347   3.641   0.986   0.226
 2071SOL    HW1 6348   3.558   1.017   0.262
 2071SOL    HW2 6349   3.688   1.065   0.202
 2072SOL     OW 6350   2.714   1.353   3.739
 2072SOL    HW1 6351   2.694   1.387   3.826
 2072SOL    HW2 6352   2.678   1.264   3.740
 2073SOL     OW 6353   2.561   1.805   4.614
 2073SOL    HW1 6354   2.522   1.892   4.610
 2073SOL    HW2 6355   2.487   1.746   4.622
 2074SOL     OW 6356   2.721   0.988   4.548
 2074SOL    HW1 6357   2.767   0.929   4.608
 2074SOL    HW2 6358   2.670   1.046   4.604
 2075SOL     OW 6359   2.946   1.012   3.832
 2075SOL    HW1 6360   2.982   1.093   3.868
 2075SOL    HW2 6361   2.906   1.038   3.748
 2076SOL     OW 6362   3.751   1.541   4.533
 2076SOL    HW1 6363   3.784   1.617   4.580
 2076SOL    HW2 6364   3.779   1.466   4.586
 2077SOL     OW 6365   1.943   1.168   4.308
 2077SOL    HW1 6366   1.886   1.146   4.382
 2077SOL    HW2 6367   1.975   1.256   4.327
 2078SOL     OW 6368   3.690   0.208   4.926
 2078SOL    HW1 6369   3.671   0.287   4.975
 2078SOL    HW2 6370   3.705   0.141   4.992
 2079SOL     OW 6371   2.359   0.487   4.287
 2079SOL    HW1 6372   2.307   0.543   4.230
 2079SOL    HW2 6373   2.374   0.408   4.235
 2080SOL     OW 6374   3.535   1.485   4.810
 2080SOL    HW1 6375   3.602   1.417   4.813
 2080SOL    HW2 6376   3.489   1.476   4.893
 2081SOL     OW 6377   2.741   1.564   4.378
 2081SOL    HW1 6378   2.789   1.591   4.456
 2081SOL    HW2 6379   2.708   1.646   4.340
 2082SOL     OW 6380   3.283   0.207   4.847
 2082SOL    HW1 6381   3.341   0.243   4.914
 2082SOL    HW2 6382   3.341   0.181   4.775
 2083SOL     OW 6383   2.866   0.020   4.866
 2083SOL    HW1 6384   2.786  -0.015   4.825
 2083SOL    HW2 6385   2.883   0.101   4.818
 2084SOL     OW 6386   2.640   1.304   4.004
 2084SOL    HW1 6387   2.666   1.351   4.083
 2084SOL    HW2 6388   2.598   1.224   4.037
 2085SOL     OW 6389   3.231   0.084   3.879
 2085SOL    HW1 6390   3.153   0.114   3.832
 2085SOL    HW2 6391   3.250  -0.002   3.841
 2086SOL     OW 6392   3.157   0.500   4.407
 2086SOL    HW1 6393   3.172   0.447   4.486
 2086SOL    HW2 6394   3.131   0.437   4.341
 2087SOL     OW 6395   3.429   0.166   4.622
 2087SOL    HW1 6396   3.523   0.146   4.629
 2087SOL    HW2 6397   3.426   0.243   4.566
 2088SOL     OW 6398   1.914   1.069   4.043
 2088SOL    HW1 6399   1.947   1.108   4.124
 2088SOL    HW2 6400   1.991   1.028   4.003
 2089SOL     OW 6401   2.727   1.670   4.048
 2089SOL    HW1 6402   2.712   1.716   4.131
 2089SOL    HW2 6403   2.811   1.704   4.017
 2090SOL     OW 6404   2.046   2.443   0.065
 2090SOL    HW1 6405   2.013   2.486   0.144
 2090SOL    HW2 6406   2.129   2.403   0.092
 2091SOL     OW 6407   2.102   2.112   0.938
 2091SOL    HW1 6408   2.132   2.192   0.982
 2091SOL    HW2 6409   2.181   2.058   0.930
 2092SOL     OW 6410   1.817   2.203   0.702
 2092SOL    HW1 6411   1.884   2.262   0.668
 2092SOL    HW2 6412   1.738   2.257   0.709
 2093SOL     OW 6413   2.420   3.169   1.183
 2093SOL    HW1 6414   2.442   3.124   1.265
 2093SOL    HW2 6415   2.471   3.124   1.116
 2094SOL     OW 6416   3.415   3.423   0.719
 2094SOL    HW1 6417   3.459   3.423   0.804
 2094SOL    HW2 6418   3.447   3.343   0.676
 2095SOL     OW 6419   3.014   2.528   0.735
 2095SOL    HW1 6420   2.978   2.566   0.815
 2095SOL    HW2 6421   3.040   2.604   0.682
 2096SOL     OW 6422   3.585   2.538   0.230
 2096SOL    HW1 6423   3.618   2.526   0.319
 2096SOL    HW2 6424   3.600   2.454   0.187
 2097SOL     OW 6425   2.578   3.020   1.016
 2097SOL    HW1 6426   2.610   3.101   0.975
 2097SOL    HW2 6427   2.648   2.956   1.001
 2098SOL     OW 6428   2.603   2.858   0.651
 2098SOL    HW1 6429   2.575   2.768   0.633
 2098SOL    HW2 6430   2.523   2.902   0.681
 2099SOL     OW 6431   2.596   3.031   1.818
 2099SOL    HW1 6432   2.600   3.072   1.904
 2099SOL    HW2 6433   2.583   3.104   1.758
 2100SOL     OW 6434   2.169   3.223   1.075
 2100SOL    HW1 6435   2.242   3.182   1.122
 2100SOL    HW2 6436   2.210   3.289   1.020
 2101SOL     OW 6437   3.308   3.378   1.337
 2101SOL    HW1 6438   3.240   3.397   1.401
 2101SOL    HW2 6439   3.300   3.448   1.272
 2102SOL     OW 6440   2.321   2.264   1.445
 2102SOL    HW1 6441   2.242   2.228   1.487
 2102SOL    HW2 6442   2.389   2.200   1.465
 2103SOL     OW 6443   3.419   2.333   0.740
 2103SOL    HW1 6444   3.495   2.352   0.685
 2103SOL    HW2 6445   3.420   2.237   0.748
 2104SOL     OW 6446   2.086   3.568   0.526
 2104SOL    HW1 6447   2.162   3.560   0.468
 2104SOL    HW2 6448   2.083   3.484   0.572
 2105SOL     OW 6449   3.004   3.205   1.683
 2105SOL    HW1 6450   3.080   3.244   1.726
 2105SOL    HW2 6451   3.039   3.171   1.600
 2106SOL     OW 6452   2.141   3.302   0.603
 2106SOL    HW1 6453   2.228   3.283   0.638
 2106SOL    HW2 6454   2.148   3.279   0.510
 2107SOL     OW 6455   2.140   2.959   0.906
 2107SOL    HW1 6456   2.130   3.001   0.991
 2107SOL    HW2 6457   2.094   3.017   0.845
 2108SOL     OW 6458   2.535   3.623   1.423
 2108SOL    HW1 6459   2.452   3.632   1.471
 2108SOL    HW2 6460   2.517   3.558   1.356
 2109SOL     OW 6461   2.396   2.828   0.133
 2109SOL    HW1 6462   2.475   2.868   0.097
 2109SOL    HW2 6463   2.426   2.745   0.169
 2110SOL     OW 6464   3.466   2.014   1.422
 2110SOL    HW1 6465   3.503   1.940   1.469
 2110SOL    HW2 6466   3.381   2.029   1.465
 2111SOL     OW 6467   1.914   2.470   0.568
 2111SOL    HW1 6468   1.935   2.498   0.657
 2111SOL    HW2 6469   1.937   2.545   0.513
 2112SOL     OW 6470   3.754   3.667   0.325
 2112SOL    HW1 6471   3.813   3.631   0.391
 2112SOL    HW2 6472   3.671   3.621   0.339
 2113SOL     OW 6473   1.883   3.477   0.124
 2113SOL    HW1 6474   1.890   3.524   0.207
 2113SOL    HW2 6475   1.959   3.505   0.074
 2114SOL     OW 6476   3.581   2.744   0.594
 2114SOL    HW1 6477   3.536   2.788   0.665
 2114SOL    HW2 6478   3.521   2.674   0.567
 2115SOL     OW 6479   3.483   3.023   0.413
 2115SOL    HW1 6480   3.527   3.090   0.361
 2115SOL    HW2 6481   3.524   2.941   0.385
 2116SOL     OW 6482   1.960   2.608   1.618
 2116SOL    HW1 6483   1.997   2.521   1.629
 2116SOL    HW2 6484   1.877   2.605   1.664
 2117SOL     OW 6485   2.431   3.219   0.722
 2117SOL    HW1 6486   2.510   3.224   0.777
 2117SOL    HW2 6487   2.461   3.245   0.635
 2118SOL     OW 6488   3.130   3.094   1.457
 2118SOL    HW1 6489   3.212   3.113   1.503
 2118SOL    HW2 6490   3.158   3.046   1.379
 2119SOL     OW 6491   2.671   1.878   0.574
 2119SOL    HW1 6492   2.576   1.893   0.575
 2119SOL    HW2 6493   2.706   1.949   0.522
 2120SOL     OW 6494   1.982   2.813   1.226
 2120SOL    HW1 6495   1.995   2.873   1.299
 2120SOL    HW2 6496   2.069   2.776   1.209
 2121SOL     OW 6497   3.334   2.852   0.128
 2121SOL    HW1 6498   3.357   2.942   0.154
 2121SOL    HW2 6499   3.414   2.819   0.086
 2122SOL     OW 6500   3.089   3.655   1.667
 2122SOL    HW1 6501   3.166   3.710   1.685
 2122SOL    HW2 6502   3.015   3.708   1.698
 2123SOL     OW 6503   2.183   2.105   1.783
 2123SOL    HW1 6504   2.249   2.036   1.781
 2123SOL    HW2 6505   2.231   2.185   1.803
 2124SOL     OW 6506   3.313   3.252   0.989
 2124SOL    HW1 6507   3.402   3.274   1.018
 2124SOL    HW2 6508   3.326   3.186   0.921
 2125SOL     OW 6509   3.534   3.653   0.594
 2125SOL    HW1 6510   3.490   3.593   0.655
 2125SOL    HW2 6511   3.518   3.614   0.508
 2126SOL     OW 6512   2.423   2.567   0.217
 2126SOL    HW1 6513   2.372   2.584   0.296
 2126SOL    HW2 6514   2.501   2.521   0.247
 2127SOL     OW 6515   3.124   2.210   0.948
 2127SOL    HW1 6516   3.130   2.209   0.852
 2127SOL    HW2 6517   3.184   2.141   0.976
 2128SOL     OW 6518   2.660   2.512   1.483
 2128SOL    HW1 6519   2.754   2.494   1.487
 2128SOL    HW2 6520   2.654   2.598   1.442
 2129SOL     OW 6521   3.269   2.313   1.674
 2129SOL    HW1 6522   3.286   2.386   1.734
 2129SOL    HW2 6523   3.175   2.296   1.684
 2130SOL     OW 6524   2.832   2.764   1.556
 2130SOL    HW1 6525   2.782   2.704   1.611
 2130SOL    HW2 6526   2.846   2.841   1.611
 2131SOL     OW 6527   2.837   2.294   1.262
 2131SOL    HW1 6528   2.742   2.305   1.265
 2131SOL    HW2 6529   2.850   2.204   1.233
 2132SOL     OW 6530   2.863   2.526   0.408
 2132SOL    HW1 6531   2.874   2.620   0.390
 2132SOL    HW2 6532   2.937   2.485   0.364
 2133SOL     OW 6533   1.930   2.614   0.804
 2133SOL    HW1 6534   2.016   2.632   0.841
 2133SOL    HW2 6535   1.875   2.687   0.833
 2134SOL     OW 6536   1.941   3.686   1.593
 2134SOL    HW1 6537   2.004   3.627   1.552
 2134SOL    HW2 6538   1.965   3.773   1.561
 2135SOL     OW 6539   2.730   2.213   0.135
 2135SOL    HW1 6540   2.695   2.236   0.221
 2135SOL    HW2 6541   2.731   2.118   0.133
 2136SOL     OW 6542   3.536   2.418   1.863
 2136SOL    HW1 6543   3.467   2.389   1.923
 2136SOL    HW2 6544   3.492   2.480   1.804
 2137SOL     OW 6545   3.229   3.017   0.545
 2137SOL    HW1 6546   3.170   3.070   0.492
 2137SOL    HW2 6547   3.309   3.010   0.493
 2138SOL     OW 6548   2.382   2.047   0.881
 2138SOL    HW1 6549   2.414   2.108   0.814
 2138SOL    HW2 6550   2.450   1.981   0.888
 2139SOL     OW 6551   2.907   3.301   0.536
 2139SOL    HW1 6552   2.956   3.342   0.607
 2139SOL    HW2 6553   2.816   3.320   0.555
 2140SOL     OW 6554   2.252   3.649   0.883
 2140SOL    HW1 6555   2.342   3.673   0.904
 2140SOL    HW2 6556   2.232   3.698   0.803
 2141SOL     OW 6557   3.618   2.902   0.888
 2141SOL    HW1 6558   3.686   2.962   0.919
 2141SOL    HW2 6559   3.666   2.824   0.861
 2142SOL     OW 6560   3.092   3.449   1.486
 2142SOL    HW1 6561   2.999   3.431   1.471
 2142SOL    HW2 6562   3.093   3.522   1.547
 2143SOL     OW 6563   2.153   2.812   0.260
 2143SOL    HW1 6564   2.168   2.735   0.315
 2143SOL    HW2 6565   2.236   2.824   0.213
 2144SOL     OW 6566   3.313   2.607   0.781
 2144SOL    HW1 6567   3.253   2.653   0.722
 2144SOL    HW2 6568   3.362   2.548   0.723
 2145SOL     OW 6569   2.302   3.120   1.721
 2145SOL    HW1 6570   2.362   3.099   1.793
 2145SOL    HW2 6571   2.219   3.141   1.764
 2146SOL     OW 6572   2.944   3.634   0.239
 2146SOL    HW1 6573   3.017   3.642   0.300
 2146SOL    HW2 6574   2.980   3.587   0.164
 2147SOL     OW 6575   2.116   2.075   1.518
 2147SOL    HW1 6576   2.125   2.083   1.612
 2147SOL    HW2 6577   2.089   1.984   1.504
 2148SOL     OW 6578   3.548   3.214   0.055
 2148SOL    HW1 6579   3.457   3.185   0.042
 2148SOL    HW2 6580   3.542   3.309   0.063
 2149SOL     OW 6581   2.317   3.571   0.356
 2149SOL    HW1 6582   2.255   3.627   0.308
 2149SOL    HW2 6583   2.373   3.534   0.288
 2150SOL     OW 6584   3.280   2.012   0.391
 2150SOL    HW1 6585   3.210   2.075   0.406
 2150SOL    HW2 6586   3.276   1.952   0.465
 2151SOL     OW 6587   2.080   3.683   1.322
 2151SOL    HW1 6588   2.159   3.652   1.368
 2151SOL    HW2 6589   2.028   3.604   1.309
 2152SOL     OW 6590   2.805   3.561   0.886
 2152SOL    HW1 6591   2.823   3.581   0.978
 2152SOL    HW2 6592   2.834   3.639   0.839
 2153SOL     OW 6593   2.268   2.606   0.436
 2153SOL    HW1 6594   2.328   2.633   0.506
 2153SOL    HW2 6595   2.251   2.513   0.454
 2154SOL     OW 6596   3.403   2.078   1.726
 2154SOL    HW1 6597   3.337   2.011   1.743
 2154SOL    HW2 6598   3.352   2.156   1.704
 2155SOL     OW 6599   2.420   1.953   0.141
 2155SOL    HW1 6600   2.376   1.991   0.065
 2155SOL    HW2 6601   2.484   1.892   0.104
 2156SOL     OW 6602   2.674   2.109   1.705
 2156SOL    HW1 6603   2.642   2.174   1.768
 2156SOL    HW2 6604   2.604   2.101   1.641
 2157SOL     OW 6605   2.744   3.386   1.174
 2157SOL    HW1 6606   2.774   3.313   1.230
 2157SOL    HW2 6607   2.654   3.401   1.202
 2158SOL     OW 6608   3.211   2.490   1.452
 2158SOL    HW1 6609   3.253   2.441   1.523
 2158SOL    HW2 6610   3.206   2.427   1.380
 2159SOL     OW 6611   2.659   3.269   0.923
 2159SOL    HW1 6612   2.690   3.319   0.999
 2159SOL    HW2 6613   2.738   3.243   0.877
 2160SOL     OW 6614   2.779   2.347   0.864
 2160SOL    HW1 6615   2.714   2.380   0.925
 2160SOL    HW2 6616   2.848   2.413   0.864
 2161SOL     OW 6617   2.394   1.893   0.566
 2161SOL    HW1 6618   2.316   1.940   0.595
 2161SOL    HW2 6619   2.363   1.835   0.497
 2162SOL     OW 6620   3.288   3.137   0.028
 2162SOL    HW1 6621   3.203   3.165   0.062
 2162SOL    HW2 6622   3.267   3.074  -0.040
 2163SOL     OW 6623   2.122   1.879   0.154
 2163SOL    HW1 6624   2.210   1.882   0.191
 2163SOL    HW2 6625   2.067   1.922   0.220
 2164SOL     OW 6626   2.796   2.097   0.467
 2164SOL    HW1 6627   2.891   2.108   0.471
 2164SOL    HW2 6628   2.762   2.177   0.506
 2165SOL     OW 6629   2.929   2.443   1.478
 2165SOL    HW1 6630   3.022   2.466   1.478
 2165SOL    HW2 6631   2.921   2.377   1.409
 2166SOL     OW 6632   3.020   3.431   0.760
 2166SOL    HW1 6633   2.953   3.470   0.816
 2166SOL    HW2 6634   3.074   3.505   0.733
 2167SOL     OW 6635   2.340   2.897   0.719
 2167SOL    HW1 6636   2.286   2.921   0.794
 2167SOL    HW2 6637   2.294   2.932   0.643
 2168SOL     OW 6638   3.120   3.670   0.606
 2168SOL    HW1 6639   3.179   3.736   0.570
 2168SOL    HW2 6640   3.145   3.589   0.561
 2169SOL     OW 6641   2.828   2.447   0.026
 2169SOL    HW1 6642   2.922   2.438   0.039
 2169SOL    HW2 6643   2.790   2.368   0.064
 2170SOL     OW 6644   1.958   2.448   1.374
 2170SOL    HW1 6645   1.971   2.387   1.446
 2170SOL    HW2 6646   1.941   2.533   1.417
 2171SOL     OW 6647   2.371   2.091   1.152
 2171SOL    HW1 6648   2.436   2.044   1.204
 2171SOL    HW2 6649   2.384   2.061   1.062
 2172SOL     OW 6650   2.734   2.333   0.587
 2172SOL    HW1 6651   2.736   2.336   0.683
 2172SOL    HW2 6652   2.784   2.410   0.560
 2173SOL     OW 6653   2.892   1.896   0.748
 2173SOL    HW1 6654   2.874   1.968   0.808
 2173SOL    HW2 6655   2.816   1.895   0.689
 2174SOL     OW 6656   3.324   3.047   0.801
 2174SOL    HW1 6657   3.276   3.040   0.718
 2174SOL    HW2 6658   3.312   2.962   0.843
 2175SOL     OW 6659   3.786   2.662   0.435
 2175SOL    HW1 6660   3.720   2.699   0.495
 2175SOL    HW2 6661   3.781   2.719   0.358
 2176SOL     OW 6662   2.337   3.272   0.140
 2176SOL    HW1 6663   2.389   3.352   0.142
 2176SOL    HW2 6664   2.364   3.227   0.060
 2177SOL     OW 6665   3.524   3.169   0.654
 2177SOL    HW1 6666   3.467   3.123   0.715
 2177SOL    HW2 6667   3.508   3.126   0.570
 2178SOL     OW 6668   3.313   2.391   0.066
 2178SOL    HW1 6669   3.351   2.410   0.152
 2178SOL    HW2 6670   3.315   2.296   0.059
 2179SOL     OW 6671   2.345   2.148   0.321
 2179SOL    HW1 6672   2.320   2.212   0.254
 2179SOL    HW2 6673   2.385   2.077   0.271
 2180SOL     OW 6674   3.617   3.099   1.616
 2180SOL    HW1 6675   3.672   3.032   1.656
 2180SOL    HW2 6676   3.591   3.062   1.532
 2181SOL     OW 6677   2.919   3.232   1.346
 2181SOL    HW1 6678   2.980   3.177   1.395
 2181SOL    HW2 6679   2.972   3.264   1.272
 2182SOL     OW 6680   3.457   3.461   1.639
 2182SOL    HW1 6681   3.548   3.432   1.645
 2182SOL    HW2 6682   3.409   3.384   1.608
 2183SOL     OW 6683   2.943   3.079   1.066
 2183SOL    HW1 6684   2.925   3.012   1.132
 2183SOL    HW2 6685   3.009   3.135   1.107
 2184SOL     OW 6686   3.461   2.946   1.112
 2184SOL    HW1 6687   3.502   2.872   1.156
 2184SOL    HW2 6688   3.498   2.945   1.024
 2185SOL     OW 6689   2.780   1.975   1.423
 2185SOL    HW1 6690   2.794   1.967   1.329
 2185SOL    HW2 6691   2.780   1.885   1.456
 2186SOL     OW 6692   2.851   2.970   1.735
 2186SOL    HW1 6693   2.893   3.055   1.722
 2186SOL    HW2 6694   2.762   2.991   1.763
 2187SOL     OW 6695   2.614   2.892   0.371
 2187SOL    HW1 6696   2.599   2.888   0.465
 2187SOL    HW2 6697   2.597   2.984   0.348
 2188SOL     OW 6698   2.284   2.697   1.220
 2188SOL    HW1 6699   2.344   2.710   1.293
 2188SOL    HW2 6700   2.254   2.607   1.229
 2189SOL     OW 6701   3.155   2.291   1.270
 2189SOL    HW1 6702   3.131   2.219   1.329
 2189SOL    HW2 6703   3.092   2.285   1.198
 2190SOL     OW 6704   1.936   3.438   1.363
 2190SOL    HW1 6705   1.900   3.425   1.451
 2190SOL    HW2 6706   1.914   3.357   1.317
 2191SOL     OW 6707   2.195   2.988   0.502
 2191SOL    HW1 6708   2.206   3.069   0.453
 2191SOL    HW2 6709   2.190   2.919   0.435
 2192SOL     OW 6710   2.433   2.421   0.837
 2192SOL    HW1 6711   2.499   2.433   0.906
 2192SOL    HW2 6712   2.358   2.383   0.883
 2193SOL     OW 6713   3.104   3.212   0.378
 2193SOL    HW1 6714   3.161   3.285   0.402
 2193SOL    HW2 6715   3.022   3.229   0.425
 2194SOL     OW 6716   3.113   3.283   1.161
 2194SOL    HW1 6717   3.173   3.293   1.235
 2194SOL    HW2 6718   3.171   3.272   1.085
 2195SOL     OW 6719   3.425   2.536   0.497
 2195SOL    HW1 6720   3.434   2.447   0.461
 2195SOL    HW2 6721   3.370   2.582   0.433
 2196SOL     OW 6722   2.196   3.360   1.329
 2196SOL    HW1 6723   2.110   3.395   1.353
 2196SOL    HW2 6724   2.185   3.329   1.239
 2197SOL     OW 6725   2.286   2.619   1.564
 2197SOL    HW1 6726   2.193   2.602   1.578
 2197SOL    HW2 6727   2.331   2.550   1.613
 2198SOL     OW 6728   3.420   2.615   1.709
 2198SOL    HW1 6729   3.479   2.676   1.754
 2198SOL    HW2 6730   3.338   2.663   1.699
 2199SOL     OW 6731   2.876   1.917   1.746
 2199SOL    HW1 6732   2.896   1.975   1.820
 2199SOL    HW2 6733   2.801   1.958   1.703
 2200SOL     OW 6734   2.392   1.932   1.778
 2200SOL    HW1 6735   2.446   1.933   1.857
 2200SOL    HW2 6736   2.421   1.854   1.730
 2201SOL     OW 6737   2.439   2.766   1.007
 2201SOL    HW1 6738   2.385   2.744   1.083
 2201SOL    HW2 6739   2.454   2.860   1.014
 2202SOL     OW 6740   3.222   2.634   1.057
 2202SOL    HW1 6741   3.186   2.708   1.106
 2202SOL    HW2 6742   3.226   2.665   0.967
 2203SOL     OW 6743   3.064   2.390   0.264
 2203SOL    HW1 6744   3.088   2.462   0.206
 2203SOL    HW2 6745   3.076   2.311   0.210
 2204SOL     OW 6746   2.099   2.118   1.249
 2204SOL    HW1 6747   2.189   2.103   1.218
 2204SOL    HW2 6748   2.106   2.113   1.345
 2205SOL     OW 6749   1.889   3.181   1.277
 2205SOL    HW1 6750   1.929   3.118   1.337
 2205SOL    HW2 6751   1.909   3.147   1.189
 2206SOL     OW 6752   2.609   2.455   1.048
 2206SOL    HW1 6753   2.631   2.544   1.076
 2206SOL    HW2 6754   2.585   2.409   1.128
 2207SOL     OW 6755   3.559   2.815   1.826
 2207SOL    HW1 6756   3.522   2.846   1.909
 2207SOL    HW2 6757   3.645   2.857   1.821
 2208SOL     OW 6758   2.119   1.912   0.657
 2208SOL    HW1 6759   2.054   1.901   0.726
 2208SOL    HW2 6760   2.110   1.834   0.602
 2209SOL     OW 6761   3.459   2.282   0.383
 2209SOL    HW1 6762   3.515   2.271   0.306
 2209SOL    HW2 6763   3.433   2.193   0.406
 2210SOL     OW 6764   2.899   2.618   0.963
 2210SOL    HW1 6765   2.903   2.622   1.059
 2210SOL    HW2 6766   2.830   2.680   0.939
 2211SOL     OW 6767   2.820   3.421   1.721
 2211SOL    HW1 6768   2.884   3.350   1.709
 2211SOL    HW2 6769   2.807   3.457   1.633
 2212SOL     OW 6770   3.711   3.363   1.643
 2212SOL    HW1 6771   3.805   3.366   1.655
 2212SOL    HW2 6772   3.691   3.269   1.633
 2213SOL     OW 6773   2.166   2.781   1.871
 2213SOL    HW1 6774   2.103   2.733   1.818
 2213SOL    HW2 6775   2.210   2.840   1.808
 2214SOL     OW 6776   3.357   2.121   0.091
 2214SOL    HW1 6777   3.331   2.076   0.171
 2214SOL    HW2 6778   3.440   2.081   0.066
 2215SOL     OW 6779   3.116   2.592   0.092
 2215SOL    HW1 6780   3.107   2.672   0.039
 2215SOL    HW2 6781   3.188   2.544   0.050
 2216SOL     OW 6782   2.896   3.182   0.821
 2216SOL    HW1 6783   2.966   3.245   0.806
 2216SOL    HW2 6784   2.920   3.138   0.903
 2217SOL     OW 6785   2.163   2.685   0.918
 2217SOL    HW1 6786   2.254   2.667   0.940
 2217SOL    HW2 6787   2.157   2.781   0.916
 2218SOL     OW 6788   2.262   2.317   1.034
 2218SOL    HW1 6789   2.238   2.373   1.107
 2218SOL    HW2 6790   2.311   2.245   1.074
 2219SOL     OW 6791   3.004   2.276   1.704
 2219SOL    HW1 6792   2.948   2.213   1.749
 2219SOL    HW2 6793   2.946   2.318   1.640
 2220SOL     OW 6794   3.056   2.089   1.430
 2220SOL    HW1 6795   2.962   2.084   1.442
 2220SOL    HW2 6796   3.091   2.013   1.476
 2221SOL     OW 6797   1.788   3.238   0.246
 2221SOL    HW1 6798   1.830   3.315   0.207
 2221SOL    HW2 6799   1.857   3.171   0.247
 2222SOL     OW 6800   1.963   3.687   0.919
 2222SOL    HW1 6801   2.054   3.655   0.921
 2222SOL    HW2 6802   1.918   3.635   0.986
 2223SOL     OW 6803   2.330   3.404   0.963
 2223SOL    HW1 6804   2.414   3.388   0.921
 2223SOL    HW2 6805   2.298   3.486   0.925
 2224SOL     OW 6806   2.877   2.613   1.240
 2224SOL    HW1 6807   2.907   2.646   1.325
 2224SOL    HW2 6808   2.876   2.517   1.250
 2225SOL     OW 6809   1.888   2.413   1.093
 2225SOL    HW1 6810   1.943   2.409   1.172
 2225SOL    HW2 6811   1.947   2.444   1.025
 2226SOL     OW 6812   2.035   2.350   1.634
 2226SOL    HW1 6813   2.047   2.367   1.727
 2226SOL    HW2 6814   1.979   2.273   1.630
 2227SOL     OW 6815   3.221   2.812   1.661
 2227SOL    HW1 6816   3.215   2.870   1.586
 2227SOL    HW2 6817   3.133   2.775   1.670
 2228SOL     OW 6818   2.621   2.420   0.333
 2228SOL    HW1 6819   2.705   2.463   0.350
 2228SOL    HW2 6820   2.599   2.378   0.416
 2229SOL     OW 6821   3.534   2.467   1.166
 2229SOL    HW1 6822   3.543   2.423   1.251
 2229SOL    HW2 6823   3.548   2.560   1.186
 2230SOL     OW 6824   2.114   3.427   1.701
 2230SOL    HW1 6825   2.101   3.494   1.767
 2230SOL    HW2 6826   2.115   3.344   1.750
 2231SOL     OW 6827   2.563   2.339   1.290
 2231SOL    HW1 6828   2.485   2.288   1.311
 2231SOL    HW2 6829   2.578   2.393   1.367
 2232SOL     OW 6830   2.789   3.509   1.459
 2232SOL    HW1 6831   2.709   3.561   1.462
 2232SOL    HW2 6832   2.800   3.486   1.366
 2233SOL     OW 6833   2.293   2.342   0.129
 2233SOL    HW1 6834   2.338   2.419   0.165
 2233SOL    HW2 6835   2.355   2.307   0.064
 2234SOL     OW 6836   2.021   2.994   1.427
 2234SOL    HW1 6837   2.109   3.032   1.435
 2234SOL    HW2 6838   2.001   2.959   1.514
 2235SOL     OW 6839   3.214   2.954   1.236
 2235SOL    HW1 6840   3.238   2.876   1.285
 2235SOL    HW2 6841   3.285   2.966   1.173
 2236SOL     OW 6842   3.221   2.702   0.339
 2236SOL    HW1 6843   3.266   2.765   0.283
 2236SOL    HW2 6844   3.155   2.663   0.281
 2237SOL     OW 6845   3.606   3.657   1.121
 2237SOL    HW1 6846   3.593   3.612   1.204
 2237SOL    HW2 6847   3.526   3.642   1.072
 2238SOL     OW 6848   3.114   3.564   1.114
 2238SOL    HW1 6849   3.032   3.613   1.124
 2238SOL    HW2 6850   3.088   3.472   1.120
 2239SOL     OW 6851   1.919   3.154   0.987
 2239SOL    HW1 6852   2.002   3.190   1.019
 2239SOL    HW2 6853   1.930   3.146   0.893
 2240SOL     OW 6854   2.526   3.575   1.767
 2240SOL    HW1 6855   2.599   3.528   1.725
 2240SOL    HW2 6856   2.511   3.528   1.848
 2241SOL     OW 6857   2.779   1.944   0.112
 2241SOL    HW1 6858   2.815   1.880   0.173
 2241SOL    HW2 6859   2.802   1.910   0.025
 2242SOL     OW 6860   3.659   2.004   0.538
 2242SOL    HW1 6861   3.692   1.996   0.628
 2242SOL    HW2 6862   3.602   1.928   0.527
 2243SOL     OW 6863   3.227   3.439   0.503
 2243SOL    HW1 6864   3.271   3.420   0.586
 2243SOL    HW2 6865   3.299   3.455   0.442
 2244SOL     OW 6866   2.036   3.645   1.851
 2244SOL    HW1 6867   1.970   3.592   1.896
 2244SOL    HW2 6868   1.992   3.674   1.771
 2245SOL     OW 6869   3.148   2.740   0.604
 2245SOL    HW1 6870   3.132   2.834   0.606
 2245SOL    HW2 6871   3.170   2.721   0.513
 2246SOL     OW 6872   2.667   3.171   1.427
 2246SOL    HW1 6873   2.756   3.203   1.412
 2246SOL    HW2 6874   2.670   3.079   1.403
 2247SOL     OW 6875   2.494   3.495   0.157
 2247SOL    HW1 6876   2.571   3.500   0.215
 2247SOL    HW2 6877   2.512   3.560   0.089
 2248SOL     OW 6878   3.541   3.547   1.374
 2248SOL    HW1 6879   3.513   3.552   1.466
 2248SOL    HW2 6880   3.494   3.471   1.339
 2249SOL     OW 6881   3.647   2.069   0.939
 2249SOL    HW1 6882   3.639   2.063   1.034
 2249SOL    HW2 6883   3.677   2.158   0.922
 2250SOL     OW 6884   2.124   2.189   0.672
 2250SOL    HW1 6885   2.111   2.186   0.767
 2250SOL    HW2 6886   2.123   2.097   0.646
 2251SOL     OW 6887   3.042   3.496   0.032
 2251SOL    HW1 6888   3.074   3.523  -0.054
 2251SOL    HW2 6889   3.048   3.401   0.031
 2252SOL     OW 6890   2.695   2.909   1.361
 2252SOL    HW1 6891   2.764   2.862   1.408
 2252SOL    HW2 6892   2.619   2.851   1.367
 2253SOL     OW 6893   2.869   2.804   0.356
 2253SOL    HW1 6894   2.895   2.852   0.434
 2253SOL    HW2 6895   2.775   2.823   0.347
 2254SOL     OW 6896   3.357   3.467   0.013
 2254SOL    HW1 6897   3.356   3.441   0.105
 2254SOL    HW2 6898   3.294   3.408  -0.029
 2255SOL     OW 6899   2.261   3.118   1.451
 2255SOL    HW1 6900   2.277   3.123   1.546
 2255SOL    HW2 6901   2.250   3.209   1.424
 2256SOL     OW 6902   3.479   3.138   1.331
 2256SOL    HW1 6903   3.415   3.210   1.329
 2256SOL    HW2 6904   3.456   3.084   1.256
 2257SOL     OW 6905   2.875   2.951   0.598
 2257SOL    HW1 6906   2.890   3.035   0.643
 2257SOL    HW2 6907   2.786   2.926   0.623
 2258SOL     OW 6908   2.869   2.099   0.938
 2258SOL    HW1 6909   2.959   2.131   0.950
 2258SOL    HW2 6910   2.820   2.175   0.908
 2259SOL     OW 6911   2.478   3.352   0.484
 2259SOL    HW1 6912   2.551   3.390   0.532
 2259SOL    HW2 6913   2.425   3.428   0.456
 2260SOL     OW 6914   3.581   2.289   1.382
 2260SOL    HW1 6915   3.603   2.272   1.474
 2260SOL    HW2 6916   3.517   2.222   1.360
 2261SOL     OW 6917   2.163   3.220   0.345
 2261SOL    HW1 6918   2.096   3.168   0.300
 2261SOL    HW2 6919   2.225   3.244   0.277
 2262SOL     OW 6920   1.979   2.874   1.668
 2262SOL    HW1 6921   1.916   2.876   1.740
 2262SOL    HW2 6922   1.975   2.785   1.634
 2263SOL     OW 6923   2.522   2.077   1.469
 2263SOL    HW1 6924   2.615   2.066   1.449
 2263SOL    HW2 6925   2.487   1.988   1.469
 2264SOL     OW 6926   3.303   2.746   1.380
 2264SOL    HW1 6927   3.391   2.748   1.417
 2264SOL    HW2 6928   3.269   2.660   1.405
 2265SOL     OW 6929   1.952   2.019   0.321
 2265SOL    HW1 6930   1.909   2.013   0.407
 2265SOL    HW2 6931   1.960   2.113   0.306
 2266SOL     OW 6932   3.024   3.174   0.120
 2266SOL    HW1 6933   3.049   3.190   0.211
 2266SOL    HW2 6934   3.000   3.081   0.117
 2267SOL     OW 6935   2.465   2.765   1.426
 2267SOL    HW1 6936   2.415   2.704   1.480
 2267SOL    HW2 6937   2.429   2.851   1.446
 2268SOL     OW 6938   3.364   3.602   1.004
 2268SOL    HW1 6939   3.279   3.600   1.047
 2268SOL    HW2 6940   3.345   3.583   0.912
 2269SOL     OW 6941   2.483   2.456   1.689
 2269SOL    HW1 6942   2.538   2.467   1.611
 2269SOL    HW2 6943   2.545   2.436   1.759
 2270SOL     OW 6944   3.336   3.144   1.634
 2270SOL    HW1 6945   3.431   3.135   1.637
 2270SOL    HW2 6946   3.306   3.105   1.716
 2271SOL     OW 6947   2.260   3.628   1.534
 2271SOL    HW1 6948   2.236   3.549   1.582
 2271SOL    HW2 6949   2.287   3.691   1.601
 2272SOL     OW 6950   3.610   2.746   1.241
 2272SOL    HW1 6951   3.590   2.763   1.333
 2272SOL    HW2 6952   3.705   2.755   1.235
 2273SOL     OW 6953   3.069   2.184   0.449
 2273SOL    HW1 6954   3.093   2.204   0.539
 2273SOL    HW2 6955   3.069   2.269   0.405
 2274SOL     OW 6956   2.448   2.627   0.652
 2274SOL    HW1 6957   2.396   2.683   0.710
 2274SOL    HW2 6958   2.449   2.542   0.695
 2275SOL     OW 6959   3.642   2.210   1.636
 2275SOL    HW1 6960   3.643   2.280   1.702
 2275SOL    HW2 6961   3.573   2.150   1.665
 2276SOL     OW 6962   3.566   2.788   1.510
 2276SOL    HW1 6963   3.638   2.733   1.539
 2276SOL    HW2 6964   3.511   2.798   1.588
 2277SOL     OW 6965   2.774   3.219   0.002
 2277SOL    HW1 6966   2.853   3.211   0.055
 2277SOL    HW2 6967   2.743   3.308   0.018
 2278SOL     OW 6968   2.530   3.642   0.947
 2278SOL    HW1 6969   2.569   3.627   1.033
 2278SOL    HW2 6970   2.597   3.615   0.885
 2279SOL     OW 6971   2.692   2.780   0.903
 2279SOL    HW1 6972   2.604   2.757   0.933
 2279SOL    HW2 6973   2.680   2.809   0.812
 2280SOL     OW 6974   2.946   2.913   0.112
 2280SOL    HW1 6975   2.929   2.876   0.198
 2280SOL    HW2 6976   2.923   2.843   0.051
 2281SOL     OW 6977   3.676   3.420   0.846
 2281SOL    HW1 6978   3.716   3.501   0.814
 2281SOL    HW2 6979   3.686   3.359   0.773
 2282SOL     OW 6980   2.077   3.196   1.852
 2282SOL    HW1 6981   2.096   3.200   1.946
 2282SOL    HW2 6982   1.988   3.161   1.847
 2283SOL     OW 6983   1.981   3.114   0.717
 2283SOL    HW1 6984   2.003   3.043   0.656
 2283SOL    HW2 6985   2.028   3.190   0.684
 2284SOL     OW 6986   2.551   3.251   1.663
 2284SOL    HW1 6987   2.593   3.236   1.578
 2284SOL    HW2 6988   2.457   3.243   1.645
 2285SOL     OW 6989   3.639   2.038   1.210
 2285SOL    HW1 6990   3.576   2.027   1.281
 2285SOL    HW2 6991   3.706   2.096   1.246
 2286SOL     OW 6992   2.270   2.342   0.499
 2286SOL    HW1 6993   2.218   2.300   0.568
 2286SOL    HW2 6994   2.306   2.270   0.449
 2287SOL     OW 6995   3.564   3.326   1.078
 2287SOL    HW1 6996   3.607   3.370   1.005
 2287SOL    HW2 6997   3.637   3.293   1.132
 2288SOL     OW 6998   2.208   2.441   1.269
 2288SOL    HW1 6999   2.255   2.383   1.330
 2288SOL    HW2 7000   2.118   2.441   1.302
 2289SOL     OW 7001   2.680   3.436   0.650
 2289SOL    HW1 7002   2.713   3.441   0.740
 2289SOL    HW2 7003   2.690   3.525   0.616
 2290SOL     OW 7004   3.305   2.053   1.077
 2290SOL    HW1 7005   3.292   2.035   1.170
 2290SOL    HW2 7006   3.324   1.967   1.038
 2291SOL     OW 7007   2.823   1.944   1.161
 2291SOL    HW1 7008   2.840   1.853   1.138
 2291SOL    HW2 7009   2.833   1.991   1.078
 2292SOL     OW 7010   2.577   3.155   0.317
 2292SOL    HW1 7011   2.542   3.219   0.379
 2292SOL    HW2 7012   2.563   3.195   0.231
 2293SOL     OW 7013   2.480   3.440   1.224
 2293SOL    HW1 7014   2.410   3.478   1.170
 2293SOL    HW2 7015   2.457   3.348   1.231
 2294SOL     OW 7016   3.182   1.883   0.161
 2294SOL    HW1 7017   3.232   1.898   0.242
 2294SOL    HW2 7018   3.136   1.966   0.146
 2295SOL     OW 7019   3.146   2.297   0.684
 2295SOL    HW1 7020   3.237   2.325   0.684
 2295SOL    HW2 7021   3.096   2.378   0.698
 2296SOL     OW 7022   3.423   2.070   0.784
 2296SOL    HW1 7023   3.501   2.053   0.836
 2296SOL    HW2 7024   3.373   1.988   0.787
 2297SOL     OW 7025   2.704   3.532   0.318
 2297SOL    HW1 7026   2.699   3.578   0.402
 2297SOL    HW2 7027   2.793   3.549   0.288
 2298SOL     OW 7028   2.048   2.462   1.887
 2298SOL    HW1 7029   1.972   2.417   1.924
 2298SOL    HW2 7030   2.122   2.431   1.939
 2299SOL     OW 7031   1.998   2.184   2.905
 2299SOL    HW1 7032   2.024   2.276   2.906
 2299SOL    HW2 7033   2.055   2.141   2.969
 2300SOL     OW 7034   1.847   2.166   2.554
 2300SOL    HW1 7035   1.867   2.224   2.481
 2300SOL    HW2 7036   1.778   2.211   2.603
 2301SOL     OW 7037   2.439   3.241   3.050
 2301SOL    HW1 7038   2.502   3.224   3.120
 2301SOL    HW2 7039   2.493   3.263   2.974
 2302SOL     OW 7040   3.439   3.357   2.581
 2302SOL    HW1 7041   3.524   3.381   2.618
 2302SOL    HW2 7042   3.452   3.268   2.548
 2303SOL     OW 7043   3.624   2.499   2.122
 2303SOL    HW1 7044   3.623   2.410   2.157
 2303SOL    HW2 7045   3.608   2.487   2.028
 2304SOL     OW 7046   2.700   2.706   3.706
 2304SOL    HW1 7047   2.622   2.740   3.751
 2304SOL    HW2 7048   2.672   2.623   3.669
 2305SOL     OW 7049   2.546   2.978   3.599
 2305SOL    HW1 7050   2.455   3.002   3.581
 2305SOL    HW2 7051   2.542   2.932   3.683
 2306SOL     OW 7052   2.143   3.250   2.903
 2306SOL    HW1 7053   2.232   3.216   2.916
 2306SOL    HW2 7054   2.147   3.341   2.933
 2307SOL     OW 7055   3.366   3.393   3.177
 2307SOL    HW1 7056   3.385   3.422   3.266
 2307SOL    HW2 7057   3.314   3.463   3.138
 2308SOL     OW 7058   2.265   2.264   3.432
 2308SOL    HW1 7059   2.349   2.220   3.444
 2308SOL    HW2 7060   2.263   2.289   3.339
 2309SOL     OW 7061   3.427   2.325   2.612
 2309SOL    HW1 7062   3.334   2.343   2.604
 2309SOL    HW2 7063   3.467   2.366   2.536
 2310SOL     OW 7064   2.103   3.567   2.328
 2310SOL    HW1 7065   2.018   3.575   2.284
 2310SOL    HW2 7066   2.099   3.483   2.373
 2311SOL     OW 7067   3.054   3.113   3.519
 2311SOL    HW1 7068   3.049   3.191   3.574
 2311SOL    HW2 7069   2.976   3.062   3.543
 2312SOL     OW 7070   2.091   3.316   2.429
 2312SOL    HW1 7071   2.167   3.271   2.394
 2312SOL    HW2 7072   2.021   3.250   2.429
 2313SOL     OW 7073   2.527   3.677   3.331
 2313SOL    HW1 7074   2.605   3.626   3.354
 2313SOL    HW2 7075   2.500   3.642   3.247
 2314SOL     OW 7076   3.510   2.018   3.336
 2314SOL    HW1 7077   3.481   2.013   3.427
 2314SOL    HW2 7078   3.499   1.929   3.303
 2315SOL     OW 7079   3.718   3.602   2.165
 2315SOL    HW1 7080   3.623   3.599   2.173
 2315SOL    HW2 7081   3.739   3.695   2.173
 2316SOL     OW 7082   1.863   3.481   1.973
 2316SOL    HW1 7083   1.849   3.521   2.058
 2316SOL    HW2 7084   1.811   3.400   1.975
 2317SOL     OW 7085   3.501   2.731   2.449
 2317SOL    HW1 7086   3.591   2.730   2.416
 2317SOL    HW2 7087   3.463   2.650   2.417
 2318SOL     OW 7088   3.485   2.982   2.324
 2318SOL    HW1 7089   3.498   2.968   2.230
 2318SOL    HW2 7090   3.476   2.894   2.360
 2319SOL     OW 7091   1.955   2.584   3.445
 2319SOL    HW1 7092   2.041   2.624   3.433
 2319SOL    HW2 7093   1.894   2.657   3.442
 2320SOL     OW 7094   2.490   3.208   2.587
 2320SOL    HW1 7095   2.557   3.276   2.579
 2320SOL    HW2 7096   2.481   3.174   2.498
 2321SOL     OW 7097   3.186   3.146   3.279
 2321SOL    HW1 7098   3.128   3.110   3.346
 2321SOL    HW2 7099   3.200   3.074   3.218
 2322SOL     OW 7100   3.372   2.837   2.037
 2322SOL    HW1 7101   3.312   2.831   2.112
 2322SOL    HW2 7102   3.350   2.761   1.983
 2323SOL     OW 7103   3.072   3.656   3.504
 2323SOL    HW1 7104   3.007   3.720   3.531
 2323SOL    HW2 7105   3.041   3.625   3.419
 2324SOL     OW 7106   2.150   2.097   3.693
 2324SOL    HW1 7107   2.223   2.053   3.649
 2324SOL    HW2 7108   2.176   2.189   3.695
 2325SOL     OW 7109   3.283   3.340   2.808
 2325SOL    HW1 7110   3.359   3.342   2.866
 2325SOL    HW2 7111   3.320   3.347   2.720
 2326SOL     OW 7112   3.571   3.616   2.479
 2326SOL    HW1 7113   3.606   3.548   2.536
 2326SOL    HW2 7114   3.492   3.578   2.441
 2327SOL     OW 7115   3.115   2.244   2.841
 2327SOL    HW1 7116   3.031   2.199   2.841
 2327SOL    HW2 7117   3.117   2.292   2.759
 2328SOL     OW 7118   3.440   3.575   2.157
 2328SOL    HW1 7119   3.374   3.535   2.214
 2328SOL    HW2 7120   3.425   3.535   2.071
 2329SOL     OW 7121   2.698   2.424   3.337
 2329SOL    HW1 7122   2.669   2.509   3.305
 2329SOL    HW2 7123   2.739   2.382   3.260
 2330SOL     OW 7124   3.296   2.295   3.546
 2330SOL    HW1 7125   3.297   2.345   3.464
 2330SOL    HW2 7126   3.240   2.346   3.605
 2331SOL     OW 7127   2.926   2.756   3.429
 2331SOL    HW1 7128   3.005   2.806   3.450
 2331SOL    HW2 7129   2.869   2.819   3.386
 2332SOL     OW 7130   2.830   2.306   3.121
 2332SOL    HW1 7131   2.917   2.269   3.139
 2332SOL    HW2 7132   2.800   2.259   3.044
 2333SOL     OW 7133   1.967   3.676   3.418
 2333SOL    HW1 7134   1.956   3.691   3.512
 2333SOL    HW2 7135   1.992   3.762   3.383
 2334SOL     OW 7136   3.556   2.419   3.714
 2334SOL    HW1 7137   3.494   2.472   3.664
 2334SOL    HW2 7138   3.593   2.358   3.651
 2335SOL     OW 7139   2.863   3.352   2.377
 2335SOL    HW1 7140   2.814   3.369   2.296
 2335SOL    HW2 7141   2.940   3.303   2.348
 2336SOL     OW 7142   2.218   3.605   2.760
 2336SOL    HW1 7143   2.254   3.692   2.775
 2336SOL    HW2 7144   2.124   3.618   2.751
 2337SOL     OW 7145   3.675   2.953   2.758
 2337SOL    HW1 7146   3.762   2.927   2.729
 2337SOL    HW2 7147   3.635   2.994   2.681
 2338SOL     OW 7148   3.086   3.387   3.387
 2338SOL    HW1 7149   3.148   3.437   3.440
 2338SOL    HW2 7150   3.140   3.320   3.345
 2339SOL     OW 7151   3.281   2.629   2.649
 2339SOL    HW1 7152   3.241   2.556   2.600
 2339SOL    HW2 7153   3.345   2.666   2.588
 2340SOL     OW 7154   2.272   2.994   3.593
 2340SOL    HW1 7155   2.228   3.046   3.660
 2340SOL    HW2 7156   2.257   2.904   3.619
 2341SOL     OW 7157   2.978   3.617   2.100
 2341SOL    HW1 7158   3.037   3.682   2.062
 2341SOL    HW2 7159   3.015   3.598   2.186
 2342SOL     OW 7160   2.029   2.130   3.356
 2342SOL    HW1 7161   2.101   2.169   3.405
 2342SOL    HW2 7162   1.951   2.152   3.406
 2343SOL     OW 7163   3.471   3.203   1.942
 2343SOL    HW1 7164   3.559   3.182   1.974
 2343SOL    HW2 7165   3.463   3.298   1.952
 2344SOL     OW 7166   2.332   3.622   2.179
 2344SOL    HW1 7167   2.386   3.663   2.247
 2344SOL    HW2 7168   2.259   3.584   2.227
 2345SOL     OW 7169   3.241   1.958   2.278
 2345SOL    HW1 7170   3.177   2.022   2.311
 2345SOL    HW2 7171   3.325   2.003   2.285
 2346SOL     OW 7172   2.126   3.656   3.109
 2346SOL    HW1 7173   2.044   3.612   3.129
 2346SOL    HW2 7174   2.189   3.585   3.095
 2347SOL     OW 7175   2.811   3.573   2.740
 2347SOL    HW1 7176   2.839   3.649   2.690
 2347SOL    HW2 7177   2.886   3.515   2.740
 2348SOL     OW 7178   3.459   2.091   3.613
 2348SOL    HW1 7179   3.542   2.134   3.592
 2348SOL    HW2 7180   3.392   2.155   3.588
 2349SOL     OW 7181   2.633   2.134   3.620
 2349SOL    HW1 7182   2.723   2.103   3.635
 2349SOL    HW2 7183   2.636   2.227   3.641
 2350SOL     OW 7184   2.757   3.401   3.069
 2350SOL    HW1 7185   2.838   3.352   3.086
 2350SOL    HW2 7186   2.730   3.372   2.982
 2351SOL     OW 7187   3.289   2.419   3.301
 2351SOL    HW1 7188   3.201   2.394   3.274
 2351SOL    HW2 7189   3.292   2.513   3.286
 2352SOL     OW 7190   2.639   3.302   2.840
 2352SOL    HW1 7191   2.559   3.347   2.815
 2352SOL    HW2 7192   2.694   3.304   2.761
 2353SOL     OW 7193   3.258   3.054   1.889
 2353SOL    HW1 7194   3.332   3.111   1.911
 2353SOL    HW2 7195   3.286   2.967   1.918
 2354SOL     OW 7196   2.103   1.858   2.058
 2354SOL    HW1 7197   2.180   1.802   2.072
 2354SOL    HW2 7198   2.108   1.922   2.128
 2355SOL     OW 7199   3.002   2.518   3.328
 2355SOL    HW1 7200   3.003   2.456   3.400
 2355SOL    HW2 7201   2.975   2.601   3.367
 2356SOL     OW 7202   3.034   3.421   2.701
 2356SOL    HW1 7203   3.117   3.396   2.741
 2356SOL    HW2 7204   3.050   3.418   2.607
 2357SOL     OW 7205   3.097   3.671   2.444
 2357SOL    HW1 7206   3.032   3.703   2.507
 2357SOL    HW2 7207   3.154   3.746   2.428
 2358SOL     OW 7208   1.886   2.422   3.229
 2358SOL    HW1 7209   1.899   2.476   3.307
 2358SOL    HW2 7210   1.974   2.390   3.208
 2359SOL     OW 7211   2.857   1.947   2.606
 2359SOL    HW1 7212   2.836   2.018   2.546
 2359SOL    HW2 7213   2.932   1.903   2.566
 2360SOL     OW 7214   3.323   3.010   2.726
 2360SOL    HW1 7215   3.352   2.972   2.808
 2360SOL    HW2 7216   3.228   3.016   2.734
 2361SOL     OW 7217   3.354   2.479   2.870
 2361SOL    HW1 7218   3.356   2.393   2.830
 2361SOL    HW2 7219   3.333   2.539   2.798
 2362SOL     OW 7220   3.725   2.681   2.297
 2362SOL    HW1 7221   3.754   2.765   2.261
 2362SOL    HW2 7222   3.696   2.631   2.221
 2363SOL     OW 7223   2.399   3.211   2.020
 2363SOL    HW1 7224   2.313   3.207   2.063
 2363SOL    HW2 7225   2.418   3.305   2.014
 2364SOL     OW 7226   3.526   3.091   2.567
 2364SOL    HW1 7227   3.450   3.062   2.617
 2364SOL    HW2 7228   3.511   3.059   2.479
 2365SOL     OW 7229   3.609   3.086   3.419
 2365SOL    HW1 7230   3.521   3.108   3.448
 2365SOL    HW2 7231   3.610   2.990   3.418
 2366SOL     OW 7232   2.901   3.227   3.238
 2366SOL    HW1 7233   2.978   3.204   3.185
 2366SOL    HW2 7234   2.936   3.283   3.308
 2367SOL     OW 7235   3.405   3.510   3.443
 2367SOL    HW1 7236   3.423   3.481   3.532
 2367SOL    HW2 7237   3.363   3.595   3.453
 2368SOL     OW 7238   3.485   2.944   2.954
 2368SOL    HW1 7239   3.507   3.019   3.010
 2368SOL    HW2 7240   3.551   2.946   2.885
 2369SOL     OW 7241   2.791   1.953   3.269
 2369SOL    HW1 7242   2.791   1.860   3.293
 2369SOL    HW2 7243   2.798   1.953   3.174
 2370SOL     OW 7244   2.828   2.988   3.598
 2370SOL    HW1 7245   2.753   3.044   3.618
 2370SOL    HW2 7246   2.790   2.902   3.582
 2371SOL     OW 7247   3.105   2.223   3.151
 2371SOL    HW1 7248   3.107   2.295   3.088
 2371SOL    HW2 7249   3.169   2.160   3.118
 2372SOL     OW 7250   1.906   3.495   3.159
 2372SOL    HW1 7251   1.946   3.418   3.200
 2372SOL    HW2 7252   1.826   3.510   3.210
 2373SOL     OW 7253   3.102   3.237   2.287
 2373SOL    HW1 7254   3.147   3.157   2.316
 2373SOL    HW2 7255   3.086   3.223   2.193
 2374SOL     OW 7256   3.103   3.299   3.025
 2374SOL    HW1 7257   3.167   3.273   3.092
 2374SOL    HW2 7258   3.151   3.294   2.943
 2375SOL     OW 7259   3.421   2.498   2.348
 2375SOL    HW1 7260   3.362   2.425   2.327
 2375SOL    HW2 7261   3.478   2.504   2.272
 2376SOL     OW 7262   2.217   3.364   3.177
 2376SOL    HW1 7263   2.196   3.310   3.252
 2376SOL    HW2 7264   2.277   3.311   3.125
 2377SOL     OW 7265   2.228   2.639   3.399
 2377SOL    HW1 7266   2.243   2.687   3.317
 2377SOL    HW2 7267   2.257   2.549   3.379
 2378SOL     OW 7268   3.411   2.636   3.603
 2378SOL    HW1 7269   3.484   2.697   3.591
 2378SOL    HW2 7270   3.364   2.669   3.679
 2379SOL     OW 7271   2.886   2.025   3.632
 2379SOL    HW1 7272   2.911   1.937   3.659
 2379SOL    HW2 7273   2.932   2.040   3.550
 2380SOL     OW 7274   2.342   1.927   3.582
 2380SOL    HW1 7275   2.413   1.953   3.523
 2380SOL    HW2 7276   2.290   1.865   3.531
 2381SOL     OW 7277   3.212   2.753   2.904
 2381SOL    HW1 7278   3.216   2.667   2.947
 2381SOL    HW2 7279   3.224   2.734   2.811
 2382SOL     OW 7280   2.139   2.085   3.116
 2382SOL    HW1 7281   2.102   2.094   3.204
 2382SOL    HW2 7282   2.144   1.991   3.102
 2383SOL     OW 7283   1.843   3.184   3.201
 2383SOL    HW1 7284   1.866   3.190   3.108
 2383SOL    HW2 7285   1.900   3.116   3.235
 2384SOL     OW 7286   3.610   2.798   3.759
 2384SOL    HW1 7287   3.642   2.718   3.799
 2384SOL    HW2 7288   3.540   2.827   3.817
 2385SOL     OW 7289   3.582   2.250   2.246
 2385SOL    HW1 7290   3.570   2.166   2.291
 2385SOL    HW2 7291   3.498   2.268   2.205
 2386SOL     OW 7292   2.824   3.453   3.599
 2386SOL    HW1 7293   2.917   3.457   3.622
 2386SOL    HW2 7294   2.823   3.465   3.504
 2387SOL     OW 7295   3.743   3.369   3.513
 2387SOL    HW1 7296   3.703   3.288   3.484
 2387SOL    HW2 7297   3.755   3.420   3.433
 2388SOL     OW 7298   2.195   2.743   3.663
 2388SOL    HW1 7299   2.161   2.674   3.720
 2388SOL    HW2 7300   2.214   2.699   3.581
 2389SOL     OW 7301   3.543   2.127   1.962
 2389SOL    HW1 7302   3.486   2.193   2.002
 2389SOL    HW2 7303   3.494   2.097   1.886
 2390SOL     OW 7304   3.213   2.634   1.926
 2390SOL    HW1 7305   3.199   2.606   2.017
 2390SOL    HW2 7306   3.147   2.701   1.911
 2391SOL     OW 7307   2.992   2.312   3.517
 2391SOL    HW1 7308   3.046   2.234   3.504
 2391SOL    HW2 7309   2.912   2.294   3.467
 2392SOL     OW 7310   3.021   2.055   3.381
 2392SOL    HW1 7311   3.068   2.101   3.311
 2392SOL    HW2 7312   2.942   2.022   3.339
 2393SOL     OW 7313   1.858   3.188   2.090
 2393SOL    HW1 7314   1.862   3.094   2.112
 2393SOL    HW2 7315   1.776   3.197   2.041
 2394SOL     OW 7316   1.949   3.647   2.760
 2394SOL    HW1 7317   1.909   3.655   2.847
 2394SOL    HW2 7318   1.909   3.570   2.721
 2395SOL     OW 7319   2.400   3.406   2.785
 2395SOL    HW1 7320   2.335   3.475   2.774
 2395SOL    HW2 7321   2.384   3.347   2.712
 2396SOL     OW 7322   2.839   2.648   3.128
 2396SOL    HW1 7323   2.904   2.602   3.181
 2396SOL    HW2 7324   2.812   2.584   3.062
 2397SOL     OW 7325   2.085   2.388   3.611
 2397SOL    HW1 7326   2.151   2.351   3.551
 2397SOL    HW2 7327   2.026   2.438   3.554
 2398SOL     OW 7328   3.209   2.813   3.487
 2398SOL    HW1 7329   3.233   2.886   3.544
 2398SOL    HW2 7330   3.269   2.743   3.512
 2399SOL     OW 7331   3.543   2.482   3.062
 2399SOL    HW1 7332   3.509   2.429   3.134
 2399SOL    HW2 7333   3.473   2.485   2.998
 2400SOL     OW 7334   2.098   3.376   3.618
 2400SOL    HW1 7335   2.065   3.425   3.694
 2400SOL    HW2 7336   2.155   3.438   3.573
 2401SOL     OW 7337   2.769   3.528   3.320
 2401SOL    HW1 7338   2.806   3.613   3.294
 2401SOL    HW2 7339   2.762   3.479   3.238
 2402SOL     OW 7340   2.270   2.404   2.045
 2402SOL    HW1 7341   2.364   2.388   2.034
 2402SOL    HW2 7342   2.261   2.428   2.137
 2403SOL     OW 7343   2.010   3.001   3.305
 2403SOL    HW1 7344   1.998   2.956   3.388
 2403SOL    HW2 7345   2.099   3.036   3.308
 2404SOL     OW 7346   3.236   2.955   3.092
 2404SOL    HW1 7347   3.326   2.965   3.060
 2404SOL    HW2 7348   3.198   2.887   3.037
 2405SOL     OW 7349   3.131   2.765   2.174
 2405SOL    HW1 7350   3.067   2.758   2.245
 2405SOL    HW2 7351   3.081   2.801   2.100
 2406SOL     OW 7352   3.598   3.613   2.953
 2406SOL    HW1 7353   3.591   3.636   3.046
 2406SOL    HW2 7354   3.579   3.519   2.950
 2407SOL     OW 7355   3.172   3.577   3.024
 2407SOL    HW1 7356   3.215   3.592   2.940
 2407SOL    HW2 7357   3.116   3.501   3.010
 2408SOL     OW 7358   1.885   3.175   2.922
 2408SOL    HW1 7359   1.978   3.193   2.912
 2408SOL    HW2 7360   1.874   3.086   2.889
 2409SOL     OW 7361   2.567   3.558   3.630
 2409SOL    HW1 7362   2.660   3.539   3.627
 2409SOL    HW2 7363   2.529   3.501   3.563
 2410SOL     OW 7364   3.598   2.003   2.374
 2410SOL    HW1 7365   3.646   2.045   2.446
 2410SOL    HW2 7366   3.600   1.910   2.395
 2411SOL     OW 7367   3.238   3.480   2.307
 2411SOL    HW1 7368   3.193   3.396   2.309
 2411SOL    HW2 7369   3.186   3.536   2.366
 2412SOL     OW 7370   1.967   3.716   3.683
 2412SOL    HW1 7371   1.927   3.793   3.722
 2412SOL    HW2 7372   2.035   3.690   3.746
 2413SOL     OW 7373   2.639   3.144   3.228
 2413SOL    HW1 7374   2.719   3.198   3.224
 2413SOL    HW2 7375   2.668   3.063   3.271
 2414SOL     OW 7376   2.497   3.472   2.020
 2414SOL    HW1 7377   2.581   3.475   2.066
 2414SOL    HW2 7378   2.436   3.519   2.076
 2415SOL     OW 7379   3.554   3.640   3.220
 2415SOL    HW1 7380   3.542   3.582   3.295
 2415SOL    HW2 7381   3.504   3.719   3.242
 2416SOL     OW 7382   3.721   2.029   2.736
 2416SOL    HW1 7383   3.783   2.065   2.799
 2416SOL    HW2 7384   3.726   2.089   2.661
 2417SOL     OW 7385   3.084   3.457   1.879
 2417SOL    HW1 7386   3.025   3.495   1.945
 2417SOL    HW2 7387   3.070   3.511   1.801
 2418SOL     OW 7388   2.721   2.861   3.253
 2418SOL    HW1 7389   2.654   2.807   3.295
 2418SOL    HW2 7390   2.775   2.798   3.205
 2419SOL     OW 7391   3.367   3.474   1.909
 2419SOL    HW1 7392   3.396   3.485   1.819
 2419SOL    HW2 7393   3.273   3.459   1.902
 2420SOL     OW 7394   2.231   3.178   3.379
 2420SOL    HW1 7395   2.324   3.194   3.393
 2420SOL    HW2 7396   2.201   3.139   3.461
 2421SOL     OW 7397   3.502   3.137   3.146
 2421SOL    HW1 7398   3.567   3.134   3.216
 2421SOL    HW2 7399   3.437   3.200   3.177
 2422SOL     OW 7400   2.885   2.097   2.849
 2422SOL    HW1 7401   2.879   2.027   2.914
 2422SOL    HW2 7402   2.866   2.054   2.765
 2423SOL     OW 7403   2.406   3.358   2.341
 2423SOL    HW1 7404   2.413   3.406   2.424
 2423SOL    HW2 7405   2.496   3.348   2.311
 2424SOL     OW 7406   3.529   2.285   3.281
 2424SOL    HW1 7407   3.444   2.327   3.294
 2424SOL    HW2 7408   3.511   2.192   3.290
 2425SOL     OW 7409   2.139   3.200   2.125
 2425SOL    HW1 7410   2.071   3.266   2.139
 2425SOL    HW2 7411   2.095   3.116   2.142
 2426SOL     OW 7412   1.955   2.914   3.566
 2426SOL    HW1 7413   2.036   2.902   3.615
 2426SOL    HW2 7414   1.889   2.868   3.617
 2427SOL     OW 7415   2.534   2.017   3.406
 2427SOL    HW1 7416   2.571   2.060   3.482
 2427SOL    HW2 7417   2.606   2.013   3.343
 2428SOL     OW 7418   1.949   2.194   1.933
 2428SOL    HW1 7419   1.917   2.137   2.003
 2428SOL    HW2 7420   2.008   2.138   1.882
 2429SOL     OW 7421   3.279   2.683   3.248
 2429SOL    HW1 7422   3.232   2.736   3.313
 2429SOL    HW2 7423   3.341   2.744   3.207
 2430SOL     OW 7424   1.860   2.025   2.141
 2430SOL    HW1 7425   1.804   2.011   2.217
 2430SOL    HW2 7426   1.885   1.937   2.112
 2431SOL     OW 7427   3.069   3.201   2.019
 2431SOL    HW1 7428   3.053   3.279   1.967
 2431SOL    HW2 7429   3.132   3.150   1.968
 2432SOL     OW 7430   2.523   2.685   3.311
 2432SOL    HW1 7431   2.471   2.688   3.392
 2432SOL    HW2 7432   2.461   2.710   3.242
 2433SOL     OW 7433   3.352   3.656   2.829
 2433SOL    HW1 7434   3.437   3.640   2.870
 2433SOL    HW2 7435   3.372   3.714   2.756
 2434SOL     OW 7436   2.633   2.440   3.602
 2434SOL    HW1 7437   2.713   2.423   3.651
 2434SOL    HW2 7438   2.659   2.432   3.510
 2435SOL     OW 7439   3.357   3.134   3.503
 2435SOL    HW1 7440   3.297   3.104   3.572
 2435SOL    HW2 7441   3.302   3.144   3.426
 2436SOL     OW 7442   2.216   3.575   3.464
 2436SOL    HW1 7443   2.130   3.608   3.436
 2436SOL    HW2 7444   2.268   3.573   3.383
 2437SOL     OW 7445   3.544   2.751   3.142
 2437SOL    HW1 7446   3.522   2.805   3.066
 2437SOL    HW2 7447   3.549   2.662   3.107
 2438SOL     OW 7448   3.098   2.159   2.405
 2438SOL    HW1 7449   3.153   2.217   2.353
 2438SOL    HW2 7450   3.014   2.205   2.412
 2439SOL     OW 7451   3.675   2.247   3.534
 2439SOL    HW1 7452   3.764   2.282   3.533
 2439SOL    HW2 7453   3.642   2.260   3.446
 2440SOL     OW 7454   3.604   2.812   3.400
 2440SOL    HW1 7455   3.677   2.752   3.416
 2440SOL    HW2 7456   3.576   2.792   3.310
 2441SOL     OW 7457   2.704   3.275   1.933
 2441SOL    HW1 7458   2.614   3.302   1.915
 2441SOL    HW2 7459   2.757   3.322   1.868
 2442SOL     OW 7460   2.490   3.710   2.853
 2442SOL    HW1 7461   2.467   3.659   2.931
 2442SOL    HW2 7462   2.550   3.654   2.804
 2443SOL     OW 7463   3.020   2.839   1.924
 2443SOL    HW1 7464   3.049   2.930   1.915
 2443SOL    HW2 7465   2.943   2.833   1.868
 2444SOL     OW 7466   3.678   3.427   2.694
 2444SOL    HW1 7467   3.749   3.484   2.723
 2444SOL    HW2 7468   3.650   3.381   2.773
 2445SOL     OW 7469   2.139   3.146   3.764
 2445SOL    HW1 7470   2.206   3.183   3.820
 2445SOL    HW2 7471   2.108   3.220   3.711
 2446SOL     OW 7472   2.528   3.276   3.483
 2446SOL    HW1 7473   2.569   3.247   3.564
 2446SOL    HW2 7474   2.575   3.230   3.414
 2447SOL     OW 7475   3.686   2.032   3.116
 2447SOL    HW1 7476   3.622   2.022   3.186
 2447SOL    HW2 7477   3.661   2.114   3.072
 2448SOL     OW 7478   3.537   3.349   2.947
 2448SOL    HW1 7479   3.493   3.344   3.032
 2448SOL    HW2 7480   3.598   3.276   2.946
 2449SOL     OW 7481   2.155   2.358   3.168
 2449SOL    HW1 7482   2.148   2.404   3.085
 2449SOL    HW2 7483   2.167   2.266   3.143
 2450SOL     OW 7484   2.674   3.401   2.565
 2450SOL    HW1 7485   2.739   3.384   2.497
 2450SOL    HW2 7486   2.709   3.477   2.612
 2451SOL     OW 7487   3.284   2.091   2.989
 2451SOL    HW1 7488   3.356   2.067   2.931
 2451SOL    HW2 7489   3.223   2.140   2.934
 2452SOL     OW 7490   2.870   1.873   3.006
 2452SOL    HW1 7491   2.956   1.834   3.022
 2452SOL    HW2 7492   2.828   1.813   2.945
 2453SOL     OW 7493   2.618   3.202   2.195
 2453SOL    HW1 7494   2.534   3.190   2.150
 2453SOL    HW2 7495   2.680   3.225   2.126
 2454SOL     OW 7496   2.444   3.534   3.112
 2454SOL    HW1 7497   2.395   3.482   3.176
 2454SOL    HW2 7498   2.474   3.470   3.047
 2455SOL     OW 7499   3.252   1.865   1.959
 2455SOL    HW1 7500   3.223   1.921   2.030
 2455SOL    HW2 7501   3.172   1.839   1.914
 2456SOL     OW 7502   3.155   2.365   2.585
 2456SOL    HW1 7503   3.167   2.283   2.538
 2456SOL    HW2 7504   3.065   2.391   2.565
 2457SOL     OW 7505   3.454   2.089   2.770
 2457SOL    HW1 7506   3.545   2.061   2.761
 2457SOL    HW2 7507   3.446   2.166   2.714
 2458SOL     OW 7508   2.011   2.946   2.149
 2458SOL    HW1 7509   2.056   2.898   2.218
 2458SOL    HW2 7510   2.034   2.899   2.068
 2459SOL     OW 7511   2.726   3.512   2.169
 2459SOL    HW1 7512   2.706   3.572   2.242
 2459SOL    HW2 7513   2.806   3.547   2.131
 2460SOL     OW 7514   2.089   2.542   3.842
 2460SOL    HW1 7515   2.009   2.526   3.893
 2460SOL    HW2 7516   2.083   2.481   3.768
 2461SOL     OW 7517   2.083   2.156   4.739
 2461SOL    HW1 7518   2.071   2.194   4.653
 2461SOL    HW2 7519   2.053   2.065   4.731
 2462SOL     OW 7520   1.845   2.217   4.395
 2462SOL    HW1 7521   1.937   2.242   4.391
 2462SOL    HW2 7522   1.842   2.149   4.463
 2463SOL     OW 7523   2.434   3.158   4.906
 2463SOL    HW1 7524   2.506   3.105   4.938
 2463SOL    HW2 7525   2.436   3.147   4.811
 2464SOL     OW 7526   3.401   3.401   4.418
 2464SOL    HW1 7527   3.377   3.397   4.511
 2464SOL    HW2 7528   3.431   3.312   4.398
 2465SOL     OW 7529   2.948   2.567   4.415
 2465SOL    HW1 7530   2.976   2.539   4.502
 2465SOL    HW2 7531   2.992   2.651   4.401
 2466SOL     OW 7532   3.662   2.471   3.954
 2466SOL    HW1 7533   3.622   2.408   4.014
 2466SOL    HW2 7534   3.623   2.451   3.869
 2467SOL     OW 7535   2.595   3.007   4.701
 2467SOL    HW1 7536   2.634   3.089   4.672
 2467SOL    HW2 7537   2.660   2.940   4.679
 2468SOL     OW 7538   2.574   2.901   4.360
 2468SOL    HW1 7539   2.656   2.945   4.384
 2468SOL    HW2 7540   2.509   2.937   4.420
 2469SOL     OW 7541   2.168   3.275   4.815
 2469SOL    HW1 7542   2.234   3.231   4.869
 2469SOL    HW2 7543   2.218   3.338   4.763
 2470SOL     OW 7544   3.463   2.272   4.441
 2470SOL    HW1 7545   3.545   2.317   4.461
 2470SOL    HW2 7546   3.486   2.204   4.379
 2471SOL     OW 7547   2.080   3.565   4.188
 2471SOL    HW1 7548   2.059   3.494   4.249
 2471SOL    HW2 7549   2.089   3.643   4.243
 2472SOL     OW 7550   2.059   3.315   4.327
 2472SOL    HW1 7551   2.144   3.307   4.369
 2472SOL    HW2 7552   2.074   3.289   4.236
 2473SOL     OW 7553   2.075   2.916   4.561
 2473SOL    HW1 7554   2.039   2.969   4.489
 2473SOL    HW2 7555   2.029   2.832   4.554
 2474SOL     OW 7556   2.484   2.832   3.831
 2474SOL    HW1 7557   2.504   2.863   3.919
 2474SOL    HW2 7558   2.392   2.806   3.835
 2475SOL     OW 7559   1.985   2.518   4.323
 2475SOL    HW1 7560   2.066   2.476   4.353
 2475SOL    HW2 7561   1.949   2.458   4.259
 2476SOL     OW 7562   3.693   3.652   4.041
 2476SOL    HW1 7563   3.781   3.681   4.065
 2476SOL    HW2 7564   3.706   3.590   3.970
 2477SOL     OW 7565   1.926   3.448   3.822
 2477SOL    HW1 7566   1.908   3.360   3.854
 2477SOL    HW2 7567   1.860   3.463   3.754
 2478SOL     OW 7568   3.565   2.737   4.372
 2478SOL    HW1 7569   3.542   2.808   4.312
 2478SOL    HW2 7570   3.545   2.657   4.323
 2479SOL     OW 7571   3.498   2.921   4.178
 2479SOL    HW1 7572   3.517   3.015   4.176
 2479SOL    HW2 7573   3.466   2.901   4.090
 2480SOL     OW 7574   2.451   3.232   4.427
 2480SOL    HW1 7575   2.517   3.240   4.496
 2480SOL    HW2 7576   2.404   3.151   4.448
 2481SOL     OW 7577   2.684   1.819   4.285
 2481SOL    HW1 7578   2.730   1.861   4.357
 2481SOL    HW2 7579   2.598   1.861   4.285
 2482SOL     OW 7580   2.038   2.771   4.965
 2482SOL    HW1 7581   2.060   2.802   5.053
 2482SOL    HW2 7582   2.110   2.712   4.942
 2483SOL     OW 7583   3.398   2.855   3.930
 2483SOL    HW1 7584   3.332   2.802   3.974
 2483SOL    HW2 7585   3.348   2.909   3.868
 2484SOL     OW 7586   3.383   3.291   4.684
 2484SOL    HW1 7587   3.312   3.317   4.742
 2484SOL    HW2 7588   3.357   3.205   4.652
 2485SOL     OW 7589   3.618   3.564   4.337
 2485SOL    HW1 7590   3.583   3.647   4.303
 2485SOL    HW2 7591   3.541   3.513   4.361
 2486SOL     OW 7592   2.486   2.560   4.005
 2486SOL    HW1 7593   2.527   2.646   4.011
 2486SOL    HW2 7594   2.409   2.566   4.061
 2487SOL     OW 7595   3.115   2.225   4.697
 2487SOL    HW1 7596   3.169   2.155   4.734
 2487SOL    HW2 7597   3.134   2.222   4.603
 2488SOL     OW 7598   3.432   3.526   4.025
 2488SOL    HW1 7599   3.519   3.564   4.042
 2488SOL    HW2 7600   3.432   3.508   3.931
 2489SOL     OW 7601   2.962   2.591   4.138
 2489SOL    HW1 7602   2.941   2.566   4.228
 2489SOL    HW2 7603   2.884   2.637   4.107
 2490SOL     OW 7604   1.925   2.687   4.541
 2490SOL    HW1 7605   1.930   2.620   4.609
 2490SOL    HW2 7606   1.938   2.638   4.459
 2491SOL     OW 7607   2.705   2.180   3.920
 2491SOL    HW1 7608   2.736   2.251   3.863
 2491SOL    HW2 7609   2.761   2.106   3.899
 2492SOL     OW 7610   3.231   3.037   4.318
 2492SOL    HW1 7611   3.322   3.022   4.292
 2492SOL    HW2 7612   3.193   2.949   4.320
 2493SOL     OW 7613   2.451   2.062   4.607
 2493SOL    HW1 7614   2.417   2.082   4.694
 2493SOL    HW2 7615   2.451   2.146   4.561
 2494SOL     OW 7616   2.825   3.251   4.212
 2494SOL    HW1 7617   2.860   3.284   4.294
 2494SOL    HW2 7618   2.826   3.326   4.153
 2495SOL     OW 7619   2.246   3.661   4.559
 2495SOL    HW1 7620   2.162   3.666   4.604
 2495SOL    HW2 7621   2.292   3.741   4.586
 2496SOL     OW 7622   3.636   2.963   4.520
 2496SOL    HW1 7623   3.605   2.967   4.611
 2496SOL    HW2 7624   3.616   2.874   4.492
 2497SOL     OW 7625   2.182   2.793   3.987
 2497SOL    HW1 7626   2.121   2.861   3.960
 2497SOL    HW2 7627   2.155   2.715   3.938
 2498SOL     OW 7628   3.298   2.605   4.444
 2498SOL    HW1 7629   3.380   2.645   4.473
 2498SOL    HW2 7630   3.277   2.543   4.514
 2499SOL     OW 7631   2.989   3.639   3.955
 2499SOL    HW1 7632   3.020   3.609   4.040
 2499SOL    HW2 7633   3.040   3.718   3.938
 2500SOL     OW 7634   3.478   3.213   3.758
 2500SOL    HW1 7635   3.564   3.197   3.797
 2500SOL    HW2 7636   3.485   3.180   3.668
 2501SOL     OW 7637   2.314   3.588   4.029
 2501SOL    HW1 7638   2.241   3.556   4.082
 2501SOL    HW2 7639   2.273   3.640   3.960
 2502SOL     OW 7640   3.275   1.977   4.182
 2502SOL    HW1 7641   3.226   2.059   4.190
 2502SOL    HW2 7642   3.259   1.947   4.092
 2503SOL     OW 7643   2.067   3.642   4.956
 2503SOL    HW1 7644   2.000   3.709   4.944
 2503SOL    HW2 7645   2.075   3.599   4.871
 2504SOL     OW 7646   2.836   3.520   4.666
 2504SOL    HW1 7647   2.818   3.591   4.727
 2504SOL    HW2 7648   2.770   3.530   4.597
 2505SOL     OW 7649   2.261   2.573   4.160
 2505SOL    HW1 7650   2.302   2.601   4.242
 2505SOL    HW2 7651   2.216   2.651   4.129
 2506SOL     OW 7652   2.461   1.933   3.848
 2506SOL    HW1 7653   2.520   2.007   3.856
 2506SOL    HW2 7654   2.431   1.936   3.757
 2507SOL     OW 7655   2.671   3.265   4.624
 2507SOL    HW1 7656   2.679   3.310   4.708
 2507SOL    HW2 7657   2.679   3.334   4.559
 2508SOL     OW 7658   2.773   2.353   4.652
 2508SOL    HW1 7659   2.702   2.399   4.698
 2508SOL    HW2 7660   2.749   2.360   4.559
 2509SOL     OW 7661   2.430   1.923   4.228
 2509SOL    HW1 7662   2.414   1.997   4.170
 2509SOL    HW2 7663   2.422   1.846   4.171
 2510SOL     OW 7664   3.267   3.033   3.759
 2510SOL    HW1 7665   3.330   3.102   3.781
 2510SOL    HW2 7666   3.182   3.067   3.787
 2511SOL     OW 7667   2.157   1.958   3.931
 2511SOL    HW1 7668   2.229   1.989   3.985
 2511SOL    HW2 7669   2.166   2.005   3.848
 2512SOL     OW 7670   2.890   2.063   4.217
 2512SOL    HW1 7671   2.874   2.015   4.298
 2512SOL    HW2 7672   2.806   2.063   4.172
 2513SOL     OW 7673   3.088   3.452   4.591
 2513SOL    HW1 7674   2.997   3.473   4.612
 2513SOL    HW2 7675   3.111   3.514   4.521
 2514SOL     OW 7676   2.329   2.993   4.473
 2514SOL    HW1 7677   2.258   2.967   4.531
 2514SOL    HW2 7678   2.301   2.966   4.386
 2515SOL     OW 7679   3.098   3.662   4.327
 2515SOL    HW1 7680   3.153   3.732   4.292
 2515SOL    HW2 7681   3.133   3.582   4.288
 2516SOL     OW 7682   2.838   2.373   3.770
 2516SOL    HW1 7683   2.915   2.351   3.718
 2516SOL    HW2 7684   2.874   2.406   3.853
 2517SOL     OW 7685   2.728   2.400   4.387
 2517SOL    HW1 7686   2.808   2.453   4.387
 2517SOL    HW2 7687   2.707   2.387   4.294
 2518SOL     OW 7688   2.878   1.913   4.473
 2518SOL    HW1 7689   2.880   1.985   4.536
 2518SOL    HW2 7690   2.867   1.835   4.526
 2519SOL     OW 7691   3.266   3.057   4.597
 2519SOL    HW1 7692   3.180   3.031   4.630
 2519SOL    HW2 7693   3.254   3.066   4.503
 2520SOL     OW 7694   3.269   2.449   4.668
 2520SOL    HW1 7695   3.198   2.388   4.687
 2520SOL    HW2 7696   3.349   2.399   4.685
 2521SOL     OW 7697   3.745   2.685   4.106
 2521SOL    HW1 7698   3.682   2.755   4.119
 2521SOL    HW2 7699   3.698   2.619   4.054
 2522SOL     OW 7700   2.327   3.267   3.918
 2522SOL    HW1 7701   2.396   3.311   3.867
 2522SOL    HW2 7702   2.361   3.267   4.007
 2523SOL     OW 7703   3.518   3.159   4.369
 2523SOL    HW1 7704   3.525   3.091   4.436
 2523SOL    HW2 7705   3.608   3.182   4.349
 2524SOL     OW 7706   3.272   2.421   3.843
 2524SOL    HW1 7707   3.346   2.472   3.875
 2524SOL    HW2 7708   3.303   2.330   3.844
 2525SOL     OW 7709   2.322   2.132   4.079
 2525SOL    HW1 7710   2.315   2.190   4.155
 2525SOL    HW2 7711   2.329   2.192   4.005
 2526SOL     OW 7712   2.997   3.095   4.817
 2526SOL    HW1 7713   2.925   3.101   4.879
 2526SOL    HW2 7714   3.051   3.023   4.850
 2527SOL     OW 7715   3.499   2.963   4.753
 2527SOL    HW1 7716   3.409   2.980   4.726
 2527SOL    HW2 7717   3.490   2.902   4.826
 2528SOL     OW 7718   2.547   2.898   4.088
 2528SOL    HW1 7719   2.575   2.988   4.075
 2528SOL    HW2 7720   2.544   2.887   4.183
 2529SOL     OW 7721   2.282   2.622   4.932
 2529SOL    HW1 7722   2.310   2.608   5.023
 2529SOL    HW2 7723   2.352   2.674   4.893
 2530SOL     OW 7724   2.237   2.952   4.220
 2530SOL    HW1 7725   2.265   3.030   4.173
 2530SOL    HW2 7726   2.223   2.886   4.151
 2531SOL     OW 7727   2.430   2.357   4.541
 2531SOL    HW1 7728   2.362   2.368   4.608
 2531SOL    HW2 7729   2.511   2.382   4.585
 2532SOL     OW 7730   3.147   3.208   4.099
 2532SOL    HW1 7731   3.165   3.295   4.133
 2532SOL    HW2 7732   3.158   3.149   4.174
 2533SOL     OW 7733   3.149   3.331   4.824
 2533SOL    HW1 7734   3.128   3.376   4.742
 2533SOL    HW2 7735   3.096   3.251   4.822
 2534SOL     OW 7736   3.471   2.525   4.225
 2534SOL    HW1 7737   3.475   2.437   4.187
 2534SOL    HW2 7738   3.388   2.527   4.273
 2535SOL     OW 7739   2.490   2.753   4.812
 2535SOL    HW1 7740   2.537   2.817   4.865
 2535SOL    HW2 7741   2.467   2.800   4.732
 2536SOL     OW 7742   3.302   2.691   4.791
 2536SOL    HW1 7743   3.379   2.651   4.830
 2536SOL    HW2 7744   3.263   2.622   4.738
 2537SOL     OW 7745   3.038   2.386   3.981
 2537SOL    HW1 7746   3.015   2.459   4.038
 2537SOL    HW2 7747   3.120   2.412   3.939
 2538SOL     OW 7748   2.237   2.045   4.955
 2538SOL    HW1 7749   2.172   2.006   5.014
 2538SOL    HW2 7750   2.185   2.094   4.891
 2539SOL     OW 7751   1.963   3.153   4.978
 2539SOL    HW1 7752   2.025   3.212   4.936
 2539SOL    HW2 7753   1.912   3.115   4.906
 2540SOL     OW 7754   2.605   2.498   4.811
 2540SOL    HW1 7755   2.669   2.510   4.880
 2540SOL    HW2 7756   2.559   2.582   4.806
 2541SOL     OW 7757   2.197   1.965   4.366
 2541SOL    HW1 7758   2.288   1.951   4.338
 2541SOL    HW2 7759   2.151   1.990   4.287
 2542SOL     OW 7760   3.512   2.279   4.089
 2542SOL    HW1 7761   3.564   2.205   4.121
 2542SOL    HW2 7762   3.457   2.241   4.020
 2543SOL     OW 7763   2.908   2.602   4.706
 2543SOL    HW1 7764   2.875   2.513   4.696
 2543SOL    HW2 7765   2.845   2.657   4.659
 2544SOL     OW 7766   3.371   2.161   3.876
 2544SOL    HW1 7767   3.314   2.088   3.901
 2544SOL    HW2 7768   3.414   2.132   3.796
 2545SOL     OW 7769   3.190   2.697   3.770
 2545SOL    HW1 7770   3.111   2.743   3.738
 2545SOL    HW2 7771   3.169   2.604   3.758
 2546SOL     OW 7772   2.916   3.150   4.562
 2546SOL    HW1 7773   2.953   3.136   4.649
 2546SOL    HW2 7774   2.837   3.202   4.578
 2547SOL     OW 7775   2.258   2.675   4.619
 2547SOL    HW1 7776   2.251   2.613   4.692
 2547SOL    HW2 7777   2.201   2.748   4.644
 2548SOL     OW 7778   2.259   2.382   4.752
 2548SOL    HW1 7779   2.261   2.426   4.836
 2548SOL    HW2 7780   2.203   2.306   4.766
 2549SOL     OW 7781   3.027   2.111   0.183
 2549SOL    HW1 7782   3.022   2.112   0.278
 2549SOL    HW2 7783   2.937   2.100   0.153
 2550SOL     OW 7784   1.864   3.202   3.910
 2550SOL    HW1 7785   1.768   3.198   3.905
 2550SOL    HW2 7786   1.891   3.111   3.911
 2551SOL     OW 7787   2.000   3.671   4.661
 2551SOL    HW1 7788   1.930   3.736   4.664
 2551SOL    HW2 7789   1.956   3.590   4.631
 2552SOL     OW 7790   2.353   3.443   4.685
 2552SOL    HW1 7791   2.433   3.491   4.708
 2552SOL    HW2 7792   2.306   3.503   4.627
 2553SOL     OW 7793   2.854   2.709   4.954
 2553SOL    HW1 7794   2.842   2.624   4.996
 2553SOL    HW2 7795   2.884   2.688   4.865
 2554SOL     OW 7796   1.908   2.387   4.839
 2554SOL    HW1 7797   1.956   2.413   4.917
 2554SOL    HW2 7798   1.942   2.300   4.818
 2555SOL     OW 7799   2.683   2.394   4.114
 2555SOL    HW1 7800   2.683   2.319   4.055
 2555SOL    HW2 7801   2.626   2.458   4.071
 2556SOL     OW 7802   3.490   2.522   4.899
 2556SOL    HW1 7803   3.435   2.465   4.952
 2556SOL    HW2 7804   3.563   2.466   4.871
 2557SOL     OW 7805   2.502   2.285   4.965
 2557SOL    HW1 7806   2.533   2.351   4.903
 2557SOL    HW2 7807   2.581   2.252   5.008
 2558SOL     OW 7808   2.315   2.351   3.904
 2558SOL    HW1 7809   2.393   2.405   3.916
 2558SOL    HW2 7810   2.243   2.414   3.900
 2559SOL     OW 7811   1.990   3.044   0.225
 2559SOL    HW1 7812   2.038   2.961   0.228
 2559SOL    HW2 7813   1.987   3.067   0.132
 2560SOL     OW 7814   3.188   2.909   4.898
 2560SOL    HW1 7815   3.216   2.888   4.987
 2560SOL    HW2 7816   3.220   2.837   4.844
 2561SOL     OW 7817   3.171   2.732   4.047
 2561SOL    HW1 7818   3.095   2.682   4.077
 2561SOL    HW2 7819   3.161   2.735   3.952
 2562SOL     OW 7820   3.617   3.643   4.812
 2562SOL    HW1 7821   3.586   3.659   4.901
 2562SOL    HW2 7822   3.618   3.548   4.804
 2563SOL     OW 7823   1.939   3.121   4.692
 2563SOL    HW1 7824   1.993   3.197   4.711
 2563SOL    HW2 7825   2.002   3.051   4.672
 2564SOL     OW 7826   3.525   2.054   4.287
 2564SOL    HW1 7827   3.570   1.971   4.305
 2564SOL    HW2 7828   3.440   2.027   4.252
 2565SOL     OW 7829   3.236   3.456   4.204
 2565SOL    HW1 7830   3.289   3.434   4.281
 2565SOL    HW2 7831   3.300   3.480   4.137
 2566SOL     OW 7832   3.127   2.782   4.330
 2566SOL    HW1 7833   3.186   2.722   4.375
 2566SOL    HW2 7834   3.139   2.764   4.237
 2567SOL     OW 7835   2.537   3.472   3.893
 2567SOL    HW1 7836   2.465   3.519   3.935
 2567SOL    HW2 7837   2.541   3.509   3.805
 2568SOL     OW 7838   3.514   3.682   0.059
 2568SOL    HW1 7839   3.525   3.670   0.153
 2568SOL    HW2 7840   3.457   3.610   0.031
 2569SOL     OW 7841   3.717   2.023   4.566
 2569SOL    HW1 7842   3.716   2.090   4.498
 2569SOL    HW2 7843   3.626   2.014   4.592
 2570SOL     OW 7844   2.114   2.220   4.449
 2570SOL    HW1 7845   2.183   2.258   4.395
 2570SOL    HW2 7846   2.133   2.126   4.449
 2571SOL     OW 7847   3.096   3.506   3.729
 2571SOL    HW1 7848   3.048   3.545   3.802
 2571SOL    HW2 7849   3.090   3.572   3.659
 2572SOL     OW 7850   2.646   2.889   0.012
 2572SOL    HW1 7851   2.694   2.954   0.064
 2572SOL    HW2 7852   2.712   2.823  -0.010
 2573SOL     OW 7853   2.769   2.746   4.037
 2573SOL    HW1 7854   2.697   2.805   4.057
 2573SOL    HW2 7855   2.818   2.790   3.969
 2574SOL     OW 7856   3.371   3.467   3.743
 2574SOL    HW1 7857   3.275   3.464   3.744
 2574SOL    HW2 7858   3.398   3.376   3.755
 2575SOL     OW 7859   2.873   2.934   4.408
 2575SOL    HW1 7860   2.896   3.018   4.447
 2575SOL    HW2 7861   2.950   2.907   4.359
 2576SOL     OW 7862   2.878   2.092   4.700
 2576SOL    HW1 7863   2.963   2.135   4.708
 2576SOL    HW2 7864   2.815   2.164   4.692
 2577SOL     OW 7865   2.438   3.307   4.166
 2577SOL    HW1 7866   2.443   3.281   4.258
 2577SOL    HW2 7867   2.460   3.400   4.166
 2578SOL     OW 7868   3.633   2.274   0.160
 2578SOL    HW1 7869   3.691   2.218   0.211
 2578SOL    HW2 7870   3.629   2.232   0.074
 2579SOL     OW 7871   2.095   3.237   4.074
 2579SOL    HW1 7872   2.018   3.217   4.020
 2579SOL    HW2 7873   2.163   3.259   4.011
 2580SOL     OW 7874   1.860   2.181   3.799
 2580SOL    HW1 7875   1.829   2.270   3.780
 2580SOL    HW2 7876   1.939   2.171   3.746
 2581SOL     OW 7877   1.915   2.025   4.035
 2581SOL    HW1 7878   1.883   2.084   3.966
 2581SOL    HW2 7879   2.002   2.000   4.006
 2582SOL     OW 7880   3.043   3.156   3.850
 2582SOL    HW1 7881   3.079   3.180   3.936
 2582SOL    HW2 7882   2.948   3.153   3.864
 2583SOL     OW 7883   3.348   3.698   4.732
 2583SOL    HW1 7884   3.436   3.663   4.747
 2583SOL    HW2 7885   3.359   3.759   4.659
 2584SOL     OW 7886   3.563   2.774   4.973
 2584SOL    HW1 7887   3.657   2.781   4.957
 2584SOL    HW2 7888   3.542   2.683   4.956
 2585SOL     OW 7889   3.116   2.201   4.176
 2585SOL    HW1 7890   3.034   2.154   4.192
 2585SOL    HW2 7891   3.094   2.263   4.106
 2586SOL     OW 7892   2.387   2.603   4.392
 2586SOL    HW1 7893   2.343   2.639   4.469
 2586SOL    HW2 7894   2.444   2.535   4.427
 2587SOL     OW 7895   3.613   2.815   0.257
 2587SOL    HW1 7896   3.641   2.843   0.170
 2587SOL    HW2 7897   3.589   2.723   0.245
 2588SOL     OW 7898   2.691   3.233   3.719
 2588SOL    HW1 7899   2.741   3.312   3.702
 2588SOL    HW2 7900   2.675   3.235   3.814
 2589SOL     OW 7901   2.547   3.647   4.694
 2589SOL    HW1 7902   2.622   3.677   4.745
 2589SOL    HW2 7903   2.504   3.728   4.666
 2590SOL     OW 7904   2.736   2.781   4.581
 2590SOL    HW1 7905   2.796   2.831   4.525
 2590SOL    HW2 7906   2.665   2.754   4.522
 2591SOL     OW 7907   2.917   2.830   3.813
 2591SOL    HW1 7908   2.847   2.777   3.775
 2591SOL    HW2 7909   2.915   2.912   3.764
 2592SOL     OW 7910   3.784   3.426   4.561
 2592SOL    HW1 7911   3.742   3.398   4.642
 2592SOL    HW2 7912   3.718   3.412   4.493
 2593SOL     OW 7913   1.945   3.061   4.367
 2593SOL    HW1 7914   1.969   3.153   4.355
 2593SOL    HW2 7915   1.963   3.020   4.283
 2594SOL     OW 7916   3.666   2.062   4.979
 2594SOL    HW1 7917   3.761   2.058   4.971
 2594SOL    HW2 7918   3.639   1.973   5.003
 2595SOL     OW 7919   2.302   2.320   4.281
 2595SOL    HW1 7920   2.367   2.338   4.349
 2595SOL    HW2 7921   2.296   2.401   4.232
 2596SOL     OW 7922   3.620   3.376   4.781
 2596SOL    HW1 7923   3.659   3.298   4.821
 2596SOL    HW2 7924   3.535   3.346   4.749
 2597SOL     OW 7925   2.660   3.467   4.447
 2597SOL    HW1 7926   2.565   3.475   4.457
 2597SOL    HW2 7927   2.681   3.524   4.373
 2598SOL     OW 7928   3.265   2.032   4.812
 2598SOL    HW1 7929   3.268   2.036   4.907
 2598SOL    HW2 7930   3.268   1.938   4.792
 2599SOL     OW 7931   2.886   1.859   4.865
 2599SOL    HW1 7932   2.888   1.945   4.822
 2599SOL    HW2 7933   2.862   1.798   4.796
 2600SOL     OW 7934   2.634   3.150   4.050
 2600SOL    HW1 7935   2.711   3.171   4.102
 2600SOL    HW2 7936   2.566   3.209   4.082
 2601SOL     OW 7937   3.235   1.913   3.906
 2601SOL    HW1 7938   3.300   1.844   3.919
 2601SOL    HW2 7939   3.208   1.903   3.814
 2602SOL     OW 7940   3.190   2.248   4.439
 2602SOL    HW1 7941   3.282   2.273   4.432
 2602SOL    HW2 7942   3.160   2.241   4.348
 2603SOL     OW 7943   3.447   2.039   4.604
 2603SOL    HW1 7944   3.388   2.043   4.679
 2603SOL    HW2 7945   3.425   2.117   4.552
 2604SOL     OW 7946   1.910   2.946   4.001
 2604SOL    HW1 7947   1.827   2.979   4.033
 2604SOL    HW2 7948   1.925   2.865   4.049
 2605SOL     OW 7949   2.781   3.451   4.030
 2605SOL    HW1 7950   2.831   3.525   3.996
 2605SOL    HW2 7951   2.696   3.457   3.986
 2606SOL     OW 7952   2.044   4.315   0.103
 2606SOL    HW1 7953   2.135   4.303   0.129
 2606SOL    HW2 7954   2.003   4.359   0.177
 2607SOL     OW 7955   2.116   3.980   0.988
 2607SOL    HW1 7956   2.142   3.969   1.079
 2607SOL    HW2 7957   2.022   3.962   0.987
 2608SOL     OW 7958   1.878   4.094   0.596
 2608SOL    HW1 7959   1.952   4.065   0.649
 2608SOL    HW2 7960   1.826   4.015   0.583
 2609SOL     OW 7961   2.967   4.438   0.726
 2609SOL    HW1 7962   2.917   4.363   0.758
 2609SOL    HW2 7963   2.961   4.431   0.630
 2610SOL     OW 7964   3.585   4.400   0.236
 2610SOL    HW1 7965   3.513   4.379   0.296
 2610SOL    HW2 7966   3.608   4.316   0.196
 2611SOL     OW 7967   2.557   4.878   0.971
 2611SOL    HW1 7968   2.601   4.934   1.035
 2611SOL    HW2 7969   2.626   4.821   0.938
 2612SOL     OW 7970   2.731   4.513   1.855
 2612SOL    HW1 7971   2.739   4.533   1.948
 2612SOL    HW2 7972   2.645   4.473   1.846
 2613SOL     OW 7973   2.575   4.743   0.653
 2613SOL    HW1 7974   2.625   4.710   0.728
 2613SOL    HW2 7975   2.626   4.817   0.621
 2614SOL     OW 7976   2.579   4.879   1.809
 2614SOL    HW1 7977   2.554   4.808   1.868
 2614SOL    HW2 7978   2.513   4.876   1.739
 2615SOL     OW 7979   2.246   4.100   1.524
 2615SOL    HW1 7980   2.270   4.125   1.613
 2615SOL    HW2 7981   2.235   4.182   1.477
 2616SOL     OW 7982   3.459   4.159   0.743
 2616SOL    HW1 7983   3.453   4.212   0.822
 2616SOL    HW2 7984   3.373   4.165   0.702
 2617SOL     OW 7985   2.107   4.801   0.871
 2617SOL    HW1 7986   2.174   4.855   0.829
 2617SOL    HW2 7987   2.029   4.814   0.817
 2618SOL     OW 7988   2.419   4.681   0.145
 2618SOL    HW1 7989   2.473   4.727   0.209
 2618SOL    HW2 7990   2.330   4.684   0.182
 2619SOL     OW 7991   3.474   3.830   1.485
 2619SOL    HW1 7992   3.511   3.766   1.424
 2619SOL    HW2 7993   3.485   3.914   1.440
 2620SOL     OW 7994   2.026   4.324   0.571
 2620SOL    HW1 7995   1.998   4.367   0.652
 2620SOL    HW2 7996   1.967   4.250   0.561
 2621SOL     OW 7997   3.565   4.633   0.595
 2621SOL    HW1 7998   3.580   4.671   0.681
 2621SOL    HW2 7999   3.549   4.708   0.538
 2622SOL     OW 8000   3.520   4.837   0.430
 2622SOL    HW1 8001   3.424   4.840   0.436
 2622SOL    HW2 8002   3.537   4.814   0.338
 2623SOL     OW 8003   1.993   4.482   1.569
 2623SOL    HW1 8004   1.916   4.537   1.556
 2623SOL    HW2 8005   1.980   4.408   1.510
 2624SOL     OW 8006   3.153   4.959   1.430
 2624SOL    HW1 8007   3.213   4.941   1.502
 2624SOL    HW2 8008   3.084   4.894   1.438
 2625SOL     OW 8009   2.705   3.684   0.548
 2625SOL    HW1 8010   2.775   3.719   0.604
 2625SOL    HW2 8011   2.663   3.762   0.512
 2626SOL     OW 8012   2.070   4.712   1.260
 2626SOL    HW1 8013   2.153   4.664   1.255
 2626SOL    HW2 8014   2.007   4.656   1.213
 2627SOL     OW 8015   3.296   4.780   0.177
 2627SOL    HW1 8016   3.271   4.764   0.267
 2627SOL    HW2 8017   3.389   4.757   0.174
 2628SOL     OW 8018   2.175   3.951   1.808
 2628SOL    HW1 8019   2.189   3.923   1.899
 2628SOL    HW2 8020   2.240   3.902   1.758
 2629SOL     OW 8021   2.499   4.441   0.262
 2629SOL    HW1 8022   2.474   4.525   0.222
 2629SOL    HW2 8023   2.431   4.380   0.235
 2630SOL     OW 8024   3.125   4.094   0.954
 2630SOL    HW1 8025   3.200   4.044   0.985
 2630SOL    HW2 8026   3.049   4.040   0.979
 2631SOL     OW 8027   2.700   4.310   1.411
 2631SOL    HW1 8028   2.783   4.343   1.443
 2631SOL    HW2 8029   2.641   4.385   1.415
 2632SOL     OW 8030   3.273   4.186   1.683
 2632SOL    HW1 8031   3.291   4.226   1.768
 2632SOL    HW2 8032   3.179   4.166   1.686
 2633SOL     OW 8033   2.826   4.637   1.615
 2633SOL    HW1 8034   2.768   4.591   1.676
 2633SOL    HW2 8035   2.769   4.663   1.542
 2634SOL     OW 8036   2.844   4.105   1.273
 2634SOL    HW1 8037   2.799   4.175   1.321
 2634SOL    HW2 8038   2.937   4.121   1.287
 2635SOL     OW 8039   2.955   4.437   0.460
 2635SOL    HW1 8040   2.892   4.489   0.409
 2635SOL    HW2 8041   2.978   4.365   0.401
 2636SOL     OW 8042   1.895   4.548   0.815
 2636SOL    HW1 8043   1.976   4.541   0.865
 2636SOL    HW2 8044   1.854   4.462   0.821
 2637SOL     OW 8045   2.753   4.076   0.172
 2637SOL    HW1 8046   2.803   4.031   0.240
 2637SOL    HW2 8047   2.712   4.150   0.218
 2638SOL     OW 8048   3.627   4.349   1.796
 2638SOL    HW1 8049   3.621   4.335   1.891
 2638SOL    HW2 8050   3.636   4.261   1.760
 2639SOL     OW 8051   3.250   4.826   0.456
 2639SOL    HW1 8052   3.183   4.791   0.515
 2639SOL    HW2 8053   3.245   4.920   0.468
 2640SOL     OW 8054   2.373   3.935   0.887
 2640SOL    HW1 8055   2.281   3.931   0.913
 2640SOL    HW2 8056   2.375   3.899   0.798
 2641SOL     OW 8057   3.615   4.758   0.835
 2641SOL    HW1 8058   3.651   4.837   0.794
 2641SOL    HW2 8059   3.690   4.698   0.839
 2642SOL     OW 8060   2.184   4.641   0.293
 2642SOL    HW1 8061   2.214   4.566   0.344
 2642SOL    HW2 8062   2.089   4.634   0.292
 2643SOL     OW 8063   3.379   4.471   0.708
 2643SOL    HW1 8064   3.449   4.522   0.668
 2643SOL    HW2 8065   3.303   4.528   0.708
 2644SOL     OW 8066   2.047   3.911   1.487
 2644SOL    HW1 8067   2.117   3.969   1.514
 2644SOL    HW2 8068   2.088   3.852   1.423
 2645SOL     OW 8069   3.245   3.859   0.441
 2645SOL    HW1 8070   3.168   3.915   0.447
 2645SOL    HW2 8071   3.243   3.824   0.352
 2646SOL     OW 8072   2.246   4.437   0.457
 2646SOL    HW1 8073   2.162   4.411   0.495
 2646SOL    HW2 8074   2.287   4.354   0.432
 2647SOL     OW 8075   3.426   3.958   1.723
 2647SOL    HW1 8076   3.373   4.031   1.691
 2647SOL    HW2 8077   3.436   3.900   1.647
 2648SOL     OW 8078   2.475   3.878   0.089
 2648SOL    HW1 8079   2.562   3.839   0.098
 2648SOL    HW2 8080   2.458   3.917   0.175
 2649SOL     OW 8081   2.644   3.943   1.785
 2649SOL    HW1 8082   2.666   4.006   1.854
 2649SOL    HW2 8083   2.632   3.997   1.707
 2650SOL     OW 8084   3.206   4.323   1.437
 2650SOL    HW1 8085   3.251   4.275   1.506
 2650SOL    HW2 8086   3.187   4.257   1.370
 2651SOL     OW 8087   2.768   4.272   0.872
 2651SOL    HW1 8088   2.761   4.228   0.957
 2651SOL    HW2 8089   2.699   4.338   0.874
 2652SOL     OW 8090   2.413   3.785   0.504
 2652SOL    HW1 8091   2.340   3.792   0.565
 2652SOL    HW2 8092   2.397   3.704   0.456
 2653SOL     OW 8093   2.153   3.724   0.206
 2653SOL    HW1 8094   2.172   3.814   0.183
 2653SOL    HW2 8095   2.119   3.685   0.126
 2654SOL     OW 8096   2.767   3.959   0.469
 2654SOL    HW1 8097   2.861   3.976   0.475
 2654SOL    HW2 8098   2.727   4.031   0.518
 2655SOL     OW 8099   2.946   4.380   1.519
 2655SOL    HW1 8100   3.035   4.376   1.484
 2655SOL    HW2 8101   2.934   4.473   1.541
 2656SOL     OW 8102   2.374   4.908   0.752
 2656SOL    HW1 8103   2.413   4.920   0.839
 2656SOL    HW2 8104   2.431   4.843   0.710
 2657SOL     OW 8105   2.956   4.248   0.035
 2657SOL    HW1 8106   2.878   4.199   0.059
 2657SOL    HW2 8107   2.924   4.331   0.001
 2658SOL     OW 8108   1.958   4.262   1.421
 2658SOL    HW1 8109   1.871   4.224   1.407
 2658SOL    HW2 8110   1.998   4.264   1.334
 2659SOL     OW 8111   2.510   3.972   1.120
 2659SOL    HW1 8112   2.467   3.969   1.034
 2659SOL    HW2 8113   2.503   3.882   1.153
 2660SOL     OW 8114   2.678   4.167   0.630
 2660SOL    HW1 8115   2.725   4.195   0.709
 2660SOL    HW2 8116   2.586   4.168   0.656
 2661SOL     OW 8117   2.899   3.764   0.732
 2661SOL    HW1 8118   2.977   3.734   0.687
 2661SOL    HW2 8119   2.917   3.856   0.751
 2662SOL     OW 8120   3.265   4.858   0.922
 2662SOL    HW1 8121   3.317   4.938   0.912
 2662SOL    HW2 8122   3.282   4.809   0.841
 2663SOL     OW 8123   3.389   4.334   0.948
 2663SOL    HW1 8124   3.310   4.368   0.990
 2663SOL    HW2 8125   3.394   4.382   0.865
 2664SOL     OW 8126   3.746   4.518   0.419
 2664SOL    HW1 8127   3.683   4.562   0.477
 2664SOL    HW2 8128   3.691   4.477   0.352
 2665SOL     OW 8129   3.246   4.250   0.044
 2665SOL    HW1 8130   3.258   4.343   0.026
 2665SOL    HW2 8131   3.155   4.233   0.019
 2666SOL     OW 8132   2.397   3.993   0.328
 2666SOL    HW1 8133   2.414   3.917   0.383
 2666SOL    HW2 8134   2.371   4.062   0.388
 2667SOL     OW 8135   3.624   5.004   1.616
 2667SOL    HW1 8136   3.680   4.934   1.582
 2667SOL    HW2 8137   3.613   5.064   1.542
 2668SOL     OW 8138   3.548   4.837   1.094
 2668SOL    HW1 8139   3.622   4.898   1.089
 2668SOL    HW2 8140   3.544   4.799   1.006
 2669SOL     OW 8141   2.770   3.838   1.352
 2669SOL    HW1 8142   2.693   3.822   1.407
 2669SOL    HW2 8143   2.766   3.932   1.333
 2670SOL     OW 8144   2.849   4.900   1.732
 2670SOL    HW1 8145   2.756   4.903   1.755
 2670SOL    HW2 8146   2.856   4.827   1.671
 2671SOL     OW 8147   2.578   4.780   0.331
 2671SOL    HW1 8148   2.558   4.844   0.400
 2671SOL    HW2 8149   2.655   4.734   0.362
 2672SOL     OW 8150   2.299   4.552   1.243
 2672SOL    HW1 8151   2.370   4.562   1.306
 2672SOL    HW2 8152   2.259   4.468   1.265
 2673SOL     OW 8153   3.122   4.144   1.243
 2673SOL    HW1 8154   3.172   4.063   1.237
 2673SOL    HW2 8155   3.125   4.180   1.154
 2674SOL     OW 8156   2.200   4.828   0.495
 2674SOL    HW1 8157   2.241   4.774   0.563
 2674SOL    HW2 8158   2.197   4.772   0.418
 2675SOL     OW 8159   2.382   4.246   0.762
 2675SOL    HW1 8160   2.363   4.255   0.856
 2675SOL    HW2 8161   2.410   4.334   0.735
 2676SOL     OW 8162   3.397   4.343   0.434
 2676SOL    HW1 8163   3.394   4.359   0.529
 2676SOL    HW2 8164   3.403   4.248   0.426
 2677SOL     OW 8165   2.284   4.524   1.566
 2677SOL    HW1 8166   2.278   4.566   1.652
 2677SOL    HW2 8167   2.194   4.500   1.544
 2678SOL     OW 8168   3.385   4.510   1.727
 2678SOL    HW1 8169   3.437   4.433   1.704
 2678SOL    HW2 8170   3.447   4.569   1.770
 2679SOL     OW 8171   2.904   3.822   1.776
 2679SOL    HW1 8172   2.931   3.880   1.847
 2679SOL    HW2 8173   2.811   3.841   1.763
 2680SOL     OW 8174   2.402   3.807   1.705
 2680SOL    HW1 8175   2.464   3.869   1.743
 2680SOL    HW2 8176   2.442   3.721   1.721
 2681SOL     OW 8177   2.458   4.613   1.029
 2681SOL    HW1 8178   2.395   4.601   1.100
 2681SOL    HW2 8179   2.463   4.707   1.017
 2682SOL     OW 8180   3.185   4.517   1.003
 2682SOL    HW1 8181   3.161   4.578   1.074
 2682SOL    HW2 8182   3.211   4.574   0.930
 2683SOL     OW 8183   3.078   4.254   0.297
 2683SOL    HW1 8184   3.164   4.287   0.271
 2683SOL    HW2 8185   3.040   4.219   0.216
 2684SOL     OW 8186   2.196   3.996   1.243
 2684SOL    HW1 8187   2.285   4.014   1.275
 2684SOL    HW2 8188   2.139   4.026   1.314
 2685SOL     OW 8189   2.618   4.394   1.077
 2685SOL    HW1 8190   2.638   4.401   1.171
 2685SOL    HW2 8191   2.553   4.462   1.061
 2686SOL     OW 8192   3.581   4.614   1.904
 2686SOL    HW1 8193   3.656   4.656   1.947
 2686SOL    HW2 8194   3.615   4.531   1.872
 2687SOL     OW 8195   2.189   3.793   0.660
 2687SOL    HW1 8196   2.130   3.730   0.618
 2687SOL    HW2 8197   2.139   3.874   0.662
 2688SOL     OW 8198   3.428   4.069   0.399
 2688SOL    HW1 8199   3.357   4.006   0.416
 2688SOL    HW2 8200   3.506   4.026   0.433
 2689SOL     OW 8201   2.897   4.506   0.999
 2689SOL    HW1 8202   2.984   4.506   0.959
 2689SOL    HW2 8203   2.862   4.419   0.981
 2690SOL     OW 8204   2.238   4.632   1.816
 2690SOL    HW1 8205   2.307   4.663   1.875
 2690SOL    HW2 8206   2.198   4.558   1.863
 2691SOL     OW 8207   3.376   4.009   0.098
 2691SOL    HW1 8208   3.439   4.029   0.167
 2691SOL    HW2 8209   3.332   4.092   0.081
 2692SOL     OW 8210   3.177   4.529   0.053
 2692SOL    HW1 8211   3.218   4.578   0.124
 2692SOL    HW2 8212   3.103   4.485   0.094
 2693SOL     OW 8213   2.114   4.536   0.968
 2693SOL    HW1 8214   2.199   4.501   0.997
 2693SOL    HW2 8215   2.132   4.628   0.948
 2694SOL     OW 8216   2.205   4.242   1.028
 2694SOL    HW1 8217   2.115   4.269   1.048
 2694SOL    HW2 8218   2.199   4.147   1.014
 2695SOL     OW 8219   3.001   4.142   1.658
 2695SOL    HW1 8220   2.976   4.211   1.597
 2695SOL    HW2 8221   2.999   4.062   1.606
 2696SOL     OW 8222   3.004   3.923   1.489
 2696SOL    HW1 8223   3.065   3.850   1.491
 2696SOL    HW2 8224   2.925   3.888   1.448
 2697SOL     OW 8225   1.800   0.036   0.216
 2697SOL    HW1 8226   1.847  -0.047   0.209
 2697SOL    HW2 8227   1.749   0.042   0.135
 2698SOL     OW 8228   2.881   4.583   1.261
 2698SOL    HW1 8229   2.970   4.618   1.271
 2698SOL    HW2 8230   2.876   4.554   1.170
 2699SOL     OW 8231   1.950   4.304   1.107
 2699SOL    HW1 8232   1.858   4.289   1.129
 2699SOL    HW2 8233   1.950   4.382   1.052
 2700SOL     OW 8234   1.974   4.271   1.747
 2700SOL    HW1 8235   1.978   4.357   1.705
 2700SOL    HW2 8236   1.998   4.209   1.678
 2701SOL     OW 8237   3.208   4.670   1.604
 2701SOL    HW1 8238   3.245   4.755   1.626
 2701SOL    HW2 8239   3.267   4.606   1.643
 2702SOL     OW 8240   2.698   4.278   0.346
 2702SOL    HW1 8241   2.690   4.266   0.441
 2702SOL    HW2 8242   2.628   4.340   0.324
 2703SOL     OW 8243   3.538   4.309   1.237
 2703SOL    HW1 8244   3.624   4.297   1.196
 2703SOL    HW2 8245   3.486   4.352   1.169
 2704SOL     OW 8246   2.480   4.163   1.313
 2704SOL    HW1 8247   2.562   4.206   1.339
 2704SOL    HW2 8248   2.504   4.108   1.239
 2705SOL     OW 8249   2.314   4.250   0.178
 2705SOL    HW1 8250   2.316   4.166   0.223
 2705SOL    HW2 8251   2.369   4.238   0.101
 2706SOL     OW 8252   2.056   4.898   1.461
 2706SOL    HW1 8253   1.965   4.903   1.493
 2706SOL    HW2 8254   2.053   4.833   1.391
 2707SOL     OW 8255   3.137   4.728   1.171
 2707SOL    HW1 8256   3.159   4.797   1.109
 2707SOL    HW2 8257   3.218   4.713   1.220
 2708SOL     OW 8258   3.200   4.528   0.336
 2708SOL    HW1 8259   3.271   4.479   0.378
 2708SOL    HW2 8260   3.124   4.515   0.392
 2709SOL     OW 8261   1.928   4.938   1.069
 2709SOL    HW1 8262   2.011   4.902   1.039
 2709SOL    HW2 8263   1.913   5.014   1.012
 2710SOL     OW 8264   2.742   3.787   0.106
 2710SOL    HW1 8265   2.760   3.877   0.133
 2710SOL    HW2 8266   2.802   3.733   0.158
 2711SOL     OW 8267   3.619   3.906   0.509
 2711SOL    HW1 8268   3.588   3.821   0.541
 2711SOL    HW2 8269   3.655   3.949   0.586
 2712SOL     OW 8270   3.155   4.634   0.726
 2712SOL    HW1 8271   3.094   4.705   0.704
 2712SOL    HW2 8272   3.101   4.556   0.728
 2713SOL     OW 8273   3.688   3.940   0.917
 2713SOL    HW1 8274   3.716   3.989   0.840
 2713SOL    HW2 8275   3.739   3.859   0.914
 2714SOL     OW 8276   2.130   4.065   0.731
 2714SOL    HW1 8277   2.207   4.121   0.741
 2714SOL    HW2 8278   2.110   4.036   0.820
 2715SOL     OW 8279   2.688   4.745   1.398
 2715SOL    HW1 8280   2.749   4.706   1.336
 2715SOL    HW2 8281   2.697   4.839   1.385
 2716SOL     OW 8282   2.804   4.605   0.307
 2716SOL    HW1 8283   2.858   4.659   0.250
 2716SOL    HW2 8284   2.743   4.561   0.248
 2717SOL     OW 8285   2.280   0.048   1.494
 2717SOL    HW1 8286   2.209  -0.016   1.497
 2717SOL    HW2 8287   2.268   0.094   1.411
 2718SOL     OW 8288   3.415   4.965   1.304
 2718SOL    HW1 8289   3.327   4.929   1.318
 2718SOL    HW2 8290   3.450   4.914   1.231
 2719SOL     OW 8291   2.942   4.789   0.638
 2719SOL    HW1 8292   2.886   4.851   0.591
 2719SOL    HW2 8293   2.892   4.707   0.640
 2720SOL     OW 8294   2.884   3.970   1.037
 2720SOL    HW1 8295   2.877   4.011   1.123
 2720SOL    HW2 8296   2.797   3.978   0.999
 2721SOL     OW 8297   3.515   4.074   1.375
 2721SOL    HW1 8298   3.599   4.088   1.418
 2721SOL    HW2 8299   3.501   4.153   1.323
 2722SOL     OW 8300   1.973   4.729   1.778
 2722SOL    HW1 8301   2.066   4.715   1.794
 2722SOL    HW2 8302   1.958   4.692   1.691
 2723SOL     OW 8303   2.545   3.970   1.508
 2723SOL    HW1 8304   2.476   3.913   1.542
 2723SOL    HW2 8305   2.499   4.037   1.457
 2724SOL     OW 8306   3.300   4.579   1.361
 2724SOL    HW1 8307   3.264   4.620   1.439
 2724SOL    HW2 8308   3.280   4.486   1.371
 2725SOL     OW 8309   1.870   3.873   0.305
 2725SOL    HW1 8310   1.913   3.897   0.223
 2725SOL    HW2 8311   1.881   3.778   0.312
 2726SOL     OW 8312   2.520   4.520   1.421
 2726SOL    HW1 8313   2.558   4.608   1.425
 2726SOL    HW2 8314   2.447   4.523   1.482
 2727SOL     OW 8315   2.604   4.252   1.716
 2727SOL    HW1 8316   2.688   4.249   1.763
 2727SOL    HW2 8317   2.628   4.261   1.624
 2728SOL     OW 8318   3.343   4.908   1.628
 2728SOL    HW1 8319   3.351   4.996   1.664
 2728SOL    HW2 8320   3.433   4.878   1.615
 2729SOL     OW 8321   3.563   4.638   1.289
 2729SOL    HW1 8322   3.474   4.607   1.304
 2729SOL    HW2 8323   3.555   4.700   1.217
 2730SOL     OW 8324   3.032   4.030   0.446
 2730SOL    HW1 8325   3.056   4.122   0.433
 2730SOL    HW2 8326   3.018   3.996   0.357
 2731SOL     OW 8327   2.455   4.481   0.643
 2731SOL    HW1 8328   2.499   4.566   0.635
 2731SOL    HW2 8329   2.394   4.479   0.570
 2732SOL     OW 8330   3.664   4.099   1.705
 2732SOL    HW1 8331   3.727   4.045   1.657
 2732SOL    HW2 8332   3.590   4.040   1.720
 2733SOL     OW 8333   3.617   4.712   1.548
 2733SOL    HW1 8334   3.710   4.731   1.532
 2733SOL    HW2 8335   3.585   4.675   1.466
 2734SOL     OW 8336   2.701   4.657   0.877
 2734SOL    HW1 8337   2.781   4.622   0.916
 2734SOL    HW2 8338   2.630   4.612   0.923
 2735SOL     OW 8339   2.937   4.748   0.109
 2735SOL    HW1 8340   2.852   4.776   0.075
 2735SOL    HW2 8341   3.000   4.801   0.060
 2736SOL     OW 8342   1.905   4.917   0.697
 2736SOL    HW1 8343   1.931   5.009   0.704
 2736SOL    HW2 8344   1.910   4.897   0.604
 2737SOL     OW 8345   3.729   3.884   1.216
 2737SOL    HW1 8346   3.696   3.949   1.155
 2737SOL    HW2 8347   3.691   3.801   1.185
 2738SOL     OW 8348   2.304   4.167   0.512
 2738SOL    HW1 8349   2.344   4.192   0.595
 2738SOL    HW2 8350   2.211   4.154   0.533
 2739SOL     OW 8351   2.244   4.291   1.298
 2739SOL    HW1 8352   2.331   4.255   1.313
 2739SOL    HW2 8353   2.224   4.270   1.207
 2740SOL     OW 8354   3.288   3.941   1.157
 2740SOL    HW1 8355   3.359   3.933   1.221
 2740SOL    HW2 8356   3.329   3.920   1.073
 2741SOL     OW 8357   2.869   3.704   1.125
 2741SOL    HW1 8358   2.833   3.726   1.211
 2741SOL    HW2 8359   2.890   3.789   1.086
 2742SOL     OW 8360   2.649   0.119   0.351
 2742SOL    HW1 8361   2.558   0.094   0.368
 2742SOL    HW2 8362   2.669   0.079   0.266
 2743SOL     OW 8363   3.225   3.786   0.173
 2743SOL    HW1 8364   3.289   3.849   0.138
 2743SOL    HW2 8365   3.244   3.705   0.127
 2744SOL     OW 8366   3.191   4.174   0.697
 2744SOL    HW1 8367   3.169   4.167   0.790
 2744SOL    HW2 8368   3.117   4.135   0.652
 2745SOL     OW 8369   3.413   3.942   0.916
 2745SOL    HW1 8370   3.506   3.924   0.927
 2745SOL    HW2 8371   3.409   4.003   0.842
 2746SOL     OW 8372   2.128   4.420   1.952
 2746SOL    HW1 8373   2.185   4.349   1.983
 2746SOL    HW2 8374   2.059   4.375   1.903
 2747SOL     OW 8375   2.155   3.949   2.820
 2747SOL    HW1 8376   2.123   3.961   2.910
 2747SOL    HW2 8377   2.110   4.017   2.770
 2748SOL     OW 8378   1.857   4.162   2.486
 2748SOL    HW1 8379   1.782   4.126   2.533
 2748SOL    HW2 8380   1.932   4.116   2.524
 2749SOL     OW 8381   2.997   4.397   2.581
 2749SOL    HW1 8382   2.953   4.419   2.499
 2749SOL    HW2 8383   3.043   4.316   2.563
 2750SOL     OW 8384   3.578   4.341   2.068
 2750SOL    HW1 8385   3.624   4.415   2.109
 2750SOL    HW2 8386   3.552   4.286   2.142
 2751SOL     OW 8387   2.650   4.848   2.906
 2751SOL    HW1 8388   2.735   4.889   2.925
 2751SOL    HW2 8389   2.593   4.922   2.884
 2752SOL     OW 8390   2.693   4.516   3.726
 2752SOL    HW1 8391   2.747   4.551   3.655
 2752SOL    HW2 8392   2.646   4.443   3.686
 2753SOL     OW 8393   2.560   4.714   2.523
 2753SOL    HW1 8394   2.476   4.745   2.559
 2753SOL    HW2 8395   2.608   4.795   2.503
 2754SOL     OW 8396   2.590   4.835   3.644
 2754SOL    HW1 8397   2.522   4.901   3.631
 2754SOL    HW2 8398   2.560   4.761   3.592
 2755SOL     OW 8399   2.314   4.105   3.345
 2755SOL    HW1 8400   2.262   4.158   3.285
 2755SOL    HW2 8401   2.250   4.062   3.402
 2756SOL     OW 8402   3.476   4.155   2.628
 2756SOL    HW1 8403   3.559   4.182   2.588
 2756SOL    HW2 8404   3.453   4.228   2.685
 2757SOL     OW 8405   2.115   4.807   2.801
 2757SOL    HW1 8406   2.103   4.764   2.886
 2757SOL    HW2 8407   2.059   4.885   2.805
 2758SOL     OW 8408   2.478   4.678   1.969
 2758SOL    HW1 8409   2.501   4.724   2.049
 2758SOL    HW2 8410   2.469   4.586   1.996
 2759SOL     OW 8411   3.412   3.856   3.299
 2759SOL    HW1 8412   3.386   3.876   3.390
 2759SOL    HW2 8413   3.444   3.940   3.265
 2760SOL     OW 8414   1.994   4.393   2.428
 2760SOL    HW1 8415   1.949   4.310   2.442
 2760SOL    HW2 8416   1.950   4.432   2.353
 2761SOL     OW 8417   3.523   4.602   2.480
 2761SOL    HW1 8418   3.520   4.686   2.434
 2761SOL    HW2 8419   3.495   4.538   2.414
 2762SOL     OW 8420   3.519   4.836   2.337
 2762SOL    HW1 8421   3.557   4.924   2.336
 2762SOL    HW2 8422   3.425   4.851   2.349
 2763SOL     OW 8423   1.962   4.540   3.423
 2763SOL    HW1 8424   2.047   4.533   3.467
 2763SOL    HW2 8425   1.955   4.460   3.372
 2764SOL     OW 8426   3.175   4.938   3.329
 2764SOL    HW1 8427   3.233   5.012   3.310
 2764SOL    HW2 8428   3.174   4.888   3.247
 2765SOL     OW 8429   2.665   3.696   2.360
 2765SOL    HW1 8430   2.581   3.732   2.388
 2765SOL    HW2 8431   2.723   3.772   2.355
 2766SOL     OW 8432   2.045   4.726   3.067
 2766SOL    HW1 8433   2.032   4.768   3.152
 2766SOL    HW2 8434   2.098   4.649   3.086
 2767SOL     OW 8435   3.383   4.722   2.074
 2767SOL    HW1 8436   3.440   4.787   2.114
 2767SOL    HW2 8437   3.438   4.680   2.007
 2768SOL     OW 8438   2.177   4.034   3.657
 2768SOL    HW1 8439   2.225   3.954   3.681
 2768SOL    HW2 8440   2.090   4.021   3.694
 2769SOL     OW 8441   2.480   4.434   2.099
 2769SOL    HW1 8442   2.559   4.393   2.136
 2769SOL    HW2 8443   2.425   4.454   2.175
 2770SOL     OW 8444   3.163   4.080   2.792
 2770SOL    HW1 8445   3.208   4.023   2.854
 2770SOL    HW2 8446   3.071   4.053   2.797
 2771SOL     OW 8447   2.650   4.353   3.304
 2771SOL    HW1 8448   2.606   4.281   3.259
 2771SOL    HW2 8449   2.706   4.392   3.237
 2772SOL     OW 8450   3.266   4.184   3.509
 2772SOL    HW1 8451   3.258   4.216   3.599
 2772SOL    HW2 8452   3.297   4.094   3.518
 2773SOL     OW 8453   2.815   4.604   3.492
 2773SOL    HW1 8454   2.845   4.693   3.513
 2773SOL    HW2 8455   2.802   4.605   3.397
 2774SOL     OW 8456   2.836   4.107   3.085
 2774SOL    HW1 8457   2.858   4.106   3.178
 2774SOL    HW2 8458   2.753   4.154   3.080
 2775SOL     OW 8459   2.912   4.446   2.317
 2775SOL    HW1 8460   2.980   4.400   2.269
 2775SOL    HW2 8461   2.884   4.516   2.258
 2776SOL     OW 8462   1.951   4.529   2.668
 2776SOL    HW1 8463   1.947   4.454   2.727
 2776SOL    HW2 8464   1.967   4.491   2.582
 2777SOL     OW 8465   2.710   4.069   2.025
 2777SOL    HW1 8466   2.643   4.115   2.074
 2777SOL    HW2 8467   2.765   4.139   1.989
 2778SOL     OW 8468   3.573   4.276   3.688
 2778SOL    HW1 8469   3.483   4.254   3.712
 2778SOL    HW2 8470   3.601   4.202   3.634
 2779SOL     OW 8471   3.245   4.843   2.345
 2779SOL    HW1 8472   3.242   4.939   2.337
 2779SOL    HW2 8473   3.220   4.811   2.258
 2780SOL     OW 8474   2.410   3.948   2.737
 2780SOL    HW1 8475   2.439   3.862   2.766
 2780SOL    HW2 8476   2.316   3.949   2.756
 2781SOL     OW 8477   3.653   4.780   2.728
 2781SOL    HW1 8478   3.698   4.698   2.707
 2781SOL    HW2 8479   3.676   4.839   2.656
 2782SOL     OW 8480   2.203   4.627   2.143
 2782SOL    HW1 8481   2.220   4.564   2.213
 2782SOL    HW2 8482   2.155   4.577   2.077
 2783SOL     OW 8483   3.308   4.427   2.577
 2783SOL    HW1 8484   3.230   4.478   2.597
 2783SOL    HW2 8485   3.380   4.489   2.587
 2784SOL     OW 8486   2.055   3.934   3.362
 2784SOL    HW1 8487   1.971   3.979   3.372
 2784SOL    HW2 8488   2.079   3.947   3.271
 2785SOL     OW 8489   3.295   3.851   2.315
 2785SOL    HW1 8490   3.226   3.890   2.260
 2785SOL    HW2 8491   3.330   3.780   2.262
 2786SOL     OW 8492   2.260   4.456   2.342
 2786SOL    HW1 8493   2.323   4.450   2.414
 2786SOL    HW2 8494   2.178   4.425   2.379
 2787SOL     OW 8495   3.398   3.949   3.557
 2787SOL    HW1 8496   3.384   3.943   3.652
 2787SOL    HW2 8497   3.490   3.972   3.548
 2788SOL     OW 8498   2.511   3.819   2.003
 2788SOL    HW1 8499   2.576   3.852   1.941
 2788SOL    HW2 8500   2.498   3.727   1.978
 2789SOL     OW 8501   2.641   3.982   3.666
 2789SOL    HW1 8502   2.566   3.943   3.621
 2789SOL    HW2 8503   2.684   4.035   3.599
 2790SOL     OW 8504   2.773   4.216   2.738
 2790SOL    HW1 8505   2.811   4.295   2.777
 2790SOL    HW2 8506   2.679   4.227   2.750
 2791SOL     OW 8507   2.430   3.826   2.429
 2791SOL    HW1 8508   2.452   3.876   2.508
 2791SOL    HW2 8509   2.335   3.816   2.432
 2792SOL     OW 8510   2.164   3.796   2.040
 2792SOL    HW1 8511   2.232   3.741   2.079
 2792SOL    HW2 8512   2.124   3.739   1.973
 2793SOL     OW 8513   2.808   3.934   2.338
 2793SOL    HW1 8514   2.898   3.966   2.334
 2793SOL    HW2 8515   2.774   3.945   2.249
 2794SOL     OW 8516   2.955   4.317   3.339
 2794SOL    HW1 8517   2.895   4.346   3.408
 2794SOL    HW2 8518   2.931   4.370   3.262
 2795SOL     OW 8519   2.327   4.820   2.615
 2795SOL    HW1 8520   2.257   4.818   2.681
 2795SOL    HW2 8521   2.280   4.824   2.532
 2796SOL     OW 8522   2.846   4.244   1.859
 2796SOL    HW1 8523   2.858   4.338   1.855
 2796SOL    HW2 8524   2.910   4.208   1.798
 2797SOL     OW 8525   1.946   4.283   3.308
 2797SOL    HW1 8526   1.982   4.263   3.395
 2797SOL    HW2 8527   1.859   4.243   3.308
 2798SOL     OW 8528   2.445   3.954   3.018
 2798SOL    HW1 8529   2.501   3.876   3.016
 2798SOL    HW2 8530   2.432   3.976   2.925
 2799SOL     OW 8531   2.707   4.171   2.462
 2799SOL    HW1 8532   2.739   4.185   2.551
 2799SOL    HW2 8533   2.739   4.084   2.439
 2800SOL     OW 8534   2.897   3.800   2.608
 2800SOL    HW1 8535   2.903   3.868   2.675
 2800SOL    HW2 8536   2.855   3.843   2.534
 2801SOL     OW 8537   3.243   4.839   2.782
 2801SOL    HW1 8538   3.208   4.923   2.754
 2801SOL    HW2 8539   3.229   4.781   2.706
 2802SOL     OW 8540   3.354   4.287   2.861
 2802SOL    HW1 8541   3.310   4.372   2.870
 2802SOL    HW2 8542   3.285   4.226   2.839
 2803SOL     OW 8543   3.707   4.554   2.240
 2803SOL    HW1 8544   3.764   4.498   2.293
 2803SOL    HW2 8545   3.640   4.585   2.301
 2804SOL     OW 8546   3.320   4.289   1.950
 2804SOL    HW1 8547   3.405   4.317   1.985
 2804SOL    HW2 8548   3.270   4.370   1.941
 2805SOL     OW 8549   2.424   3.998   2.192
 2805SOL    HW1 8550   2.432   3.942   2.269
 2805SOL    HW2 8551   2.448   3.941   2.119
 2806SOL     OW 8552   3.593   4.912   3.475
 2806SOL    HW1 8553   3.507   4.918   3.516
 2806SOL    HW2 8554   3.608   5.000   3.439
 2807SOL     OW 8555   3.473   4.795   2.926
 2807SOL    HW1 8556   3.397   4.819   2.872
 2807SOL    HW2 8557   3.545   4.787   2.864
 2808SOL     OW 8558   2.829   3.787   3.242
 2808SOL    HW1 8559   2.754   3.841   3.267
 2808SOL    HW2 8560   2.819   3.775   3.147
 2809SOL     OW 8561   2.855   4.863   3.589
 2809SOL    HW1 8562   2.897   4.825   3.667
 2809SOL    HW2 8563   2.762   4.865   3.611
 2810SOL     OW 8564   2.594   4.783   2.196
 2810SOL    HW1 8565   2.568   4.767   2.287
 2810SOL    HW2 8566   2.603   4.878   2.190
 2811SOL     OW 8567   2.241   4.527   3.097
 2811SOL    HW1 8568   2.323   4.545   3.144
 2811SOL    HW2 8569   2.263   4.537   3.005
 2812SOL     OW 8570   3.123   4.123   3.107
 2812SOL    HW1 8571   3.101   4.052   3.168
 2812SOL    HW2 8572   3.045   4.132   3.052
 2813SOL     OW 8573   2.228   4.814   2.345
 2813SOL    HW1 8574   2.135   4.829   2.360
 2813SOL    HW2 8575   2.230   4.756   2.269
 2814SOL     OW 8576   2.502   4.232   2.746
 2814SOL    HW1 8577   2.450   4.296   2.698
 2814SOL    HW2 8578   2.459   4.148   2.728
 2815SOL     OW 8579   3.444   4.381   2.342
 2815SOL    HW1 8580   3.454   4.288   2.324
 2815SOL    HW2 8581   3.384   4.385   2.416
 2816SOL     OW 8582   2.253   4.523   3.470
 2816SOL    HW1 8583   2.266   4.428   3.474
 2816SOL    HW2 8584   2.311   4.552   3.399
 2817SOL     OW 8585   3.419   4.486   3.597
 2817SOL    HW1 8586   3.493   4.427   3.607
 2817SOL    HW2 8587   3.412   4.500   3.503
 2818SOL     OW 8588   2.888   3.831   3.592
 2818SOL    HW1 8589   2.802   3.835   3.634
 2818SOL    HW2 8590   2.910   3.923   3.576
 2819SOL     OW 8591   2.361   3.791   3.617
 2819SOL    HW1 8592   2.284   3.777   3.562
 2819SOL    HW2 8593   2.418   3.717   3.598
 2820SOL     OW 8594   2.487   4.606   2.882
 2820SOL    HW1 8595   2.501   4.700   2.870
 2820SOL    HW2 8596   2.402   4.588   2.842
 2821SOL     OW 8597   3.238   4.529   2.920
 2821SOL    HW1 8598   3.288   4.610   2.930
 2821SOL    HW2 8599   3.147   4.556   2.924
 2822SOL     OW 8600   3.078   4.270   2.158
 2822SOL    HW1 8601   3.163   4.314   2.163
 2822SOL    HW2 8602   3.061   4.262   2.064
 2823SOL     OW 8603   2.153   3.927   3.102
 2823SOL    HW1 8604   2.247   3.944   3.094
 2823SOL    HW2 8605   2.146   3.831   3.102
 2824SOL     OW 8606   2.618   4.401   3.001
 2824SOL    HW1 8607   2.560   4.328   2.978
 2824SOL    HW2 8608   2.579   4.477   2.956
 2825SOL     OW 8609   3.605   4.668   3.721
 2825SOL    HW1 8610   3.545   4.667   3.796
 2825SOL    HW2 8611   3.556   4.628   3.650
 2826SOL     OW 8612   2.158   3.813   2.433
 2826SOL    HW1 8613   2.103   3.862   2.371
 2826SOL    HW2 8614   2.139   3.721   2.415
 2827SOL     OW 8615   3.456   4.120   2.280
 2827SOL    HW1 8616   3.517   4.047   2.275
 2827SOL    HW2 8617   3.374   4.081   2.310
 2828SOL     OW 8618   2.911   4.462   2.837
 2828SOL    HW1 8619   2.959   4.440   2.758
 2828SOL    HW2 8620   2.849   4.530   2.809
 2829SOL     OW 8621   2.219   4.577   3.742
 2829SOL    HW1 8622   2.310   4.594   3.767
 2829SOL    HW2 8623   2.220   4.578   3.647
 2830SOL     OW 8624   3.331   4.000   1.981
 2830SOL    HW1 8625   3.331   4.095   1.988
 2830SOL    HW2 8626   3.379   3.981   1.901
 2831SOL     OW 8627   3.148   4.511   1.911
 2831SOL    HW1 8628   3.086   4.583   1.912
 2831SOL    HW2 8629   3.201   4.526   1.832
 2832SOL     OW 8630   2.238   4.536   2.810
 2832SOL    HW1 8631   2.170   4.582   2.762
 2832SOL    HW2 8632   2.212   4.444   2.809
 2833SOL     OW 8633   2.175   4.275   2.858
 2833SOL    HW1 8634   2.216   4.243   2.938
 2833SOL    HW2 8635   2.081   4.263   2.873
 2834SOL     OW 8636   2.947   4.091   3.534
 2834SOL    HW1 8637   2.939   4.150   3.609
 2834SOL    HW2 8638   2.967   4.150   3.460
 2835SOL     OW 8639   3.045   3.950   3.295
 2835SOL    HW1 8640   3.040   3.959   3.390
 2835SOL    HW2 8641   2.985   3.878   3.275
 2836SOL     OW 8642   1.829   0.054   2.023
 2836SOL    HW1 8643   1.747   0.079   2.065
 2836SOL    HW2 8644   1.863   0.135   1.986
 2837SOL     OW 8645   2.868   4.479   3.136
 2837SOL    HW1 8646   2.811   4.555   3.137
 2837SOL    HW2 8647   2.876   4.457   3.043
 2838SOL     OW 8648   1.908   4.242   2.903
 2838SOL    HW1 8649   1.848   4.292   2.959
 2838SOL    HW2 8650   1.853   4.176   2.861
 2839SOL     OW 8651   2.068   4.256   3.548
 2839SOL    HW1 8652   2.116   4.178   3.577
 2839SOL    HW2 8653   2.042   4.299   3.629
 2840SOL     OW 8654   3.207   4.697   3.503
 2840SOL    HW1 8655   3.268   4.754   3.549
 2840SOL    HW2 8656   3.145   4.757   3.461
 2841SOL     OW 8657   2.690   4.303   2.214
 2841SOL    HW1 8658   2.759   4.363   2.240
 2841SOL    HW2 8659   2.689   4.237   2.284
 2842SOL     OW 8660   3.542   4.338   3.057
 2842SOL    HW1 8661   3.537   4.258   3.110
 2842SOL    HW2 8662   3.483   4.321   2.983
 2843SOL     OW 8663   2.517   4.164   3.170
 2843SOL    HW1 8664   2.447   4.157   3.235
 2843SOL    HW2 8665   2.499   4.093   3.108
 2844SOL     OW 8666   2.307   4.226   2.031
 2844SOL    HW1 8667   2.377   4.291   2.041
 2844SOL    HW2 8668   2.340   4.148   2.075
 2845SOL     OW 8669   2.022   4.849   3.334
 2845SOL    HW1 8670   2.035   4.782   3.401
 2845SOL    HW2 8671   1.943   4.895   3.361
 2846SOL     OW 8672   3.228   4.822   3.083
 2846SOL    HW1 8673   3.323   4.817   3.070
 2846SOL    HW2 8674   3.193   4.845   2.997
 2847SOL     OW 8675   3.191   4.551   2.185
 2847SOL    HW1 8676   3.270   4.604   2.172
 2847SOL    HW2 8677   3.158   4.535   2.096
 2848SOL     OW 8678   1.961   0.019   2.892
 2848SOL    HW1 8679   1.921   0.037   2.977
 2848SOL    HW2 8680   2.012   0.098   2.873
 2849SOL     OW 8681   3.583   3.885   2.398
 2849SOL    HW1 8682   3.490   3.897   2.419
 2849SOL    HW2 8683   3.600   3.793   2.419
 2850SOL     OW 8684   3.153   4.666   2.522
 2850SOL    HW1 8685   3.194   4.731   2.465
 2850SOL    HW2 8686   3.122   4.598   2.461
 2851SOL     OW 8687   3.676   3.952   2.881
 2851SOL    HW1 8688   3.746   3.897   2.845
 2851SOL    HW2 8689   3.598   3.929   2.830
 2852SOL     OW 8690   2.100   4.058   2.563
 2852SOL    HW1 8691   2.129   3.968   2.552
 2852SOL    HW2 8692   2.165   4.111   2.517
 2853SOL     OW 8693   2.694   4.713   3.184
 2853SOL    HW1 8694   2.728   4.793   3.224
 2853SOL    HW2 8695   2.669   4.740   3.095
 2854SOL     OW 8696   2.797   4.609   2.121
 2854SOL    HW1 8697   2.728   4.670   2.147
 2854SOL    HW2 8698   2.857   4.662   2.068
 2855SOL     OW 8699   2.245   5.016   3.352
 2855SOL    HW1 8700   2.165   4.963   3.352
 2855SOL    HW2 8701   2.278   5.008   3.263
 2856SOL     OW 8702   3.515   5.000   3.113
 2856SOL    HW1 8703   3.593   5.052   3.094
 2856SOL    HW2 8704   3.519   4.928   3.051
 2857SOL     OW 8705   2.949   4.815   2.625
 2857SOL    HW1 8706   3.016   4.759   2.586
 2857SOL    HW2 8707   2.883   4.754   2.658
 2858SOL     OW 8708   2.894   3.994   2.835
 2858SOL    HW1 8709   2.881   4.012   2.928
 2858SOL    HW2 8710   2.851   4.066   2.789
 2859SOL     OW 8711   3.531   4.117   3.248
 2859SOL    HW1 8712   3.561   4.129   3.338
 2859SOL    HW2 8713   3.600   4.066   3.206
 2860SOL     OW 8714   1.991   4.806   3.638
 2860SOL    HW1 8715   1.926   4.746   3.676
 2860SOL    HW2 8716   1.939   4.874   3.596
 2861SOL     OW 8717   2.557   3.943   3.389
 2861SOL    HW1 8718   2.477   3.989   3.366
 2861SOL    HW2 8719   2.538   3.851   3.373
 2862SOL     OW 8720   1.918   4.026   1.883
 2862SOL    HW1 8721   1.934   4.121   1.876
 2862SOL    HW2 8722   2.001   3.986   1.859
 2863SOL     OW 8723   3.336   4.528   3.325
 2863SOL    HW1 8724   3.394   4.574   3.264
 2863SOL    HW2 8725   3.292   4.598   3.373
 2864SOL     OW 8726   1.951   3.882   2.185
 2864SOL    HW1 8727   2.029   3.855   2.138
 2864SOL    HW2 8728   1.913   3.952   2.131
 2865SOL     OW 8729   2.463   4.558   3.267
 2865SOL    HW1 8730   2.529   4.623   3.241
 2865SOL    HW2 8731   2.513   4.477   3.280
 2866SOL     OW 8732   2.563   4.331   3.576
 2866SOL    HW1 8733   2.504   4.256   3.574
 2866SOL    HW2 8734   2.595   4.339   3.486
 2867SOL     OW 8735   3.331   4.944   3.561
 2867SOL    HW1 8736   3.352   5.035   3.581
 2867SOL    HW2 8737   3.271   4.949   3.487
 2868SOL     OW 8738   3.522   4.614   3.139
 2868SOL    HW1 8739   3.524   4.672   3.064
 2868SOL    HW2 8740   3.542   4.527   3.103
 2869SOL     OW 8741   3.051   4.052   2.324
 2869SOL    HW1 8742   3.095   4.088   2.401
 2869SOL    HW2 8743   3.054   4.123   2.260
 2870SOL     OW 8744   2.482   4.437   2.508
 2870SOL    HW1 8745   2.565   4.391   2.502
 2870SOL    HW2 8746   2.505   4.530   2.515
 2871SOL     OW 8747   3.654   4.041   3.542
 2871SOL    HW1 8748   3.695   4.032   3.628
 2871SOL    HW2 8749   3.722   4.013   3.480
 2872SOL     OW 8750   3.619   4.652   3.403
 2872SOL    HW1 8751   3.607   4.743   3.430
 2872SOL    HW2 8752   3.595   4.652   3.311
 2873SOL     OW 8753   2.748   4.655   2.725
 2873SOL    HW1 8754   2.709   4.709   2.794
 2873SOL    HW2 8755   2.683   4.653   2.655
 2874SOL     OW 8756   2.950   4.704   1.906
 2874SOL    HW1 8757   2.942   4.792   1.867
 2874SOL    HW2 8758   2.895   4.649   1.850
 2875SOL     OW 8759   1.856   4.983   2.491
 2875SOL    HW1 8760   1.949   5.005   2.492
 2875SOL    HW2 8761   1.847   4.911   2.554
 2876SOL     OW 8762   3.729   3.963   3.149
 2876SOL    HW1 8763   3.824   3.966   3.151
 2876SOL    HW2 8764   3.707   3.948   3.057
 2877SOL     OW 8765   2.315   4.146   2.409
 2877SOL    HW1 8766   2.376   4.219   2.416
 2877SOL    HW2 8767   2.334   4.107   2.324
 2878SOL     OW 8768   2.181   4.269   3.167
 2878SOL    HW1 8769   2.092   4.271   3.202
 2878SOL    HW2 8770   2.200   4.359   3.143
 2879SOL     OW 8771   3.280   3.898   2.958
 2879SOL    HW1 8772   3.269   3.911   3.053
 2879SOL    HW2 8773   3.279   3.803   2.947
 2880SOL     OW 8774   2.802   3.752   2.973
 2880SOL    HW1 8775   2.842   3.816   2.914
 2880SOL    HW2 8776   2.802   3.670   2.923
 2881SOL     OW 8777   2.620   0.062   2.188
 2881SOL    HW1 8778   2.688   0.124   2.215
 2881SOL    HW2 8779   2.541   0.091   2.235
 2882SOL     OW 8780   3.200   3.765   2.025
 2882SOL    HW1 8781   3.272   3.704   2.010
 2882SOL    HW2 8782   3.239   3.852   2.009
 2883SOL     OW 8783   3.172   4.182   2.535
 2883SOL    HW1 8784   3.238   4.252   2.541
 2883SOL    HW2 8785   3.180   4.135   2.617
 2884SOL     OW 8786   3.450   3.907   2.736
 2884SOL    HW1 8787   3.389   3.920   2.808
 2884SOL    HW2 8788   3.450   3.991   2.689
 2885SOL     OW 8789   1.886   4.794   2.146
 2885SOL    HW1 8790   1.803   4.825   2.184
 2885SOL    HW2 8791   1.897   4.848   2.067
 2886SOL     OW 8792   2.060   4.363   3.810
 2886SOL    HW1 8793   2.105   4.445   3.787
 2886SOL    HW2 8794   2.128   4.310   3.850
 2887SOL     OW 8795   2.129   3.967   4.740
 2887SOL    HW1 8796   2.152   3.947   4.831
 2887SOL    HW2 8797   2.038   3.938   4.731
 2888SOL     OW 8798   1.833   4.139   4.358
 2888SOL    HW1 8799   1.912   4.098   4.393
 2888SOL    HW2 8800   1.864   4.217   4.314
 2889SOL     OW 8801   3.072   4.442   4.456
 2889SOL    HW1 8802   3.021   4.445   4.537
 2889SOL    HW2 8803   3.069   4.350   4.430
 2890SOL     OW 8804   3.630   4.357   3.969
 2890SOL    HW1 8805   3.553   4.368   4.025
 2890SOL    HW2 8806   3.596   4.358   3.880
 2891SOL     OW 8807   2.628   4.899   4.795
 2891SOL    HW1 8808   2.537   4.925   4.779
 2891SOL    HW2 8809   2.649   4.839   4.724
 2892SOL     OW 8810   2.584   4.713   4.341
 2892SOL    HW1 8811   2.613   4.803   4.324
 2892SOL    HW2 8812   2.600   4.666   4.260
 2893SOL     OW 8813   3.442   4.165   4.450
 2893SOL    HW1 8814   3.533   4.136   4.456
 2893SOL    HW2 8815   3.429   4.220   4.527
 2894SOL     OW 8816   2.084   4.815   4.621
 2894SOL    HW1 8817   2.075   4.876   4.695
 2894SOL    HW2 8818   2.169   4.838   4.582
 2895SOL     OW 8819   2.470   4.633   3.833
 2895SOL    HW1 8820   2.498   4.723   3.848
 2895SOL    HW2 8821   2.544   4.592   3.788
 2896SOL     OW 8822   1.941   4.382   4.261
 2896SOL    HW1 8823   1.932   4.416   4.350
 2896SOL    HW2 8824   2.035   4.390   4.243
 2897SOL     OW 8825   3.532   4.654   4.334
 2897SOL    HW1 8826   3.461   4.594   4.355
 2897SOL    HW2 8827   3.581   4.610   4.264
 2898SOL     OW 8828   3.528   4.839   4.108
 2898SOL    HW1 8829   3.494   4.926   4.130
 2898SOL    HW2 8830   3.517   4.789   4.188
 2899SOL     OW 8831   2.659   3.681   4.280
 2899SOL    HW1 8832   2.736   3.725   4.314
 2899SOL    HW2 8833   2.585   3.734   4.311
 2900SOL     OW 8834   2.089   4.698   4.937
 2900SOL    HW1 8835   2.056   4.700   5.027
 2900SOL    HW2 8836   2.041   4.768   4.892
 2901SOL     OW 8837   3.428   4.662   3.925
 2901SOL    HW1 8838   3.459   4.727   3.988
 2901SOL    HW2 8839   3.340   4.639   3.956
 2902SOL     OW 8840   2.464   4.448   4.040
 2902SOL    HW1 8841   2.379   4.448   4.085
 2902SOL    HW2 8842   2.455   4.516   3.974
 2903SOL     OW 8843   3.129   4.050   4.652
 2903SOL    HW1 8844   3.136   4.111   4.725
 2903SOL    HW2 8845   3.188   3.978   4.676
 2904SOL     OW 8846   2.951   4.436   4.073
 2904SOL    HW1 8847   2.901   4.514   4.047
 2904SOL    HW2 8848   2.884   4.371   4.094
 2905SOL     OW 8849   1.905   4.485   4.513
 2905SOL    HW1 8850   1.991   4.504   4.549
 2905SOL    HW2 8851   1.854   4.454   4.589
 2906SOL     OW 8852   2.754   4.024   3.932
 2906SOL    HW1 8853   2.840   4.064   3.917
 2906SOL    HW2 8854   2.713   4.023   3.845
 2907SOL     OW 8855   3.280   4.887   4.277
 2907SOL    HW1 8856   3.315   4.916   4.361
 2907SOL    HW2 8857   3.217   4.818   4.300
 2908SOL     OW 8858   2.369   3.902   4.619
 2908SOL    HW1 8859   2.291   3.929   4.669
 2908SOL    HW2 8860   2.410   3.984   4.593
 2909SOL     OW 8861   3.663   4.779   4.539
 2909SOL    HW1 8862   3.606   4.743   4.471
 2909SOL    HW2 8863   3.737   4.719   4.543
 2910SOL     OW 8864   2.183   4.707   4.004
 2910SOL    HW1 8865   2.199   4.727   3.911
 2910SOL    HW2 8866   2.172   4.612   4.007
 2911SOL     OW 8867   3.342   4.467   4.413
 2911SOL    HW1 8868   3.370   4.433   4.498
 2911SOL    HW2 8869   3.247   4.466   4.416
 2912SOL     OW 8870   3.258   3.837   4.180
 2912SOL    HW1 8871   3.351   3.825   4.199
 2912SOL    HW2 8872   3.250   3.813   4.087
 2913SOL     OW 8873   2.222   4.445   4.210
 2913SOL    HW1 8874   2.271   4.482   4.283
 2913SOL    HW2 8875   2.241   4.351   4.214
 2914SOL     OW 8876   2.451   3.853   3.866
 2914SOL    HW1 8877   2.415   3.827   3.781
 2914SOL    HW2 8878   2.544   3.865   3.850
 2915SOL     OW 8879   2.762   4.216   4.655
 2915SOL    HW1 8880   2.689   4.261   4.697
 2915SOL    HW2 8881   2.740   4.216   4.562
 2916SOL     OW 8882   2.398   3.787   4.207
 2916SOL    HW1 8883   2.480   3.826   4.176
 2916SOL    HW2 8884   2.387   3.709   4.153
 2917SOL     OW 8885   2.156   3.777   3.893
 2917SOL    HW1 8886   2.226   3.840   3.908
 2917SOL    HW2 8887   2.078   3.816   3.934
 2918SOL     OW 8888   2.742   4.012   4.214
 2918SOL    HW1 8889   2.811   3.956   4.250
 2918SOL    HW2 8890   2.753   4.006   4.119
 2919SOL     OW 8891   2.328   4.856   4.508
 2919SOL    HW1 8892   2.391   4.928   4.498
 2919SOL    HW2 8893   2.300   4.836   4.418
 2920SOL     OW 8894   2.913   4.288   3.720
 2920SOL    HW1 8895   2.845   4.315   3.782
 2920SOL    HW2 8896   2.977   4.360   3.722
 2921SOL     OW 8897   2.666   4.206   4.397
 2921SOL    HW1 8898   2.580   4.173   4.421
 2921SOL    HW2 8899   2.699   4.142   4.333
 2922SOL     OW 8900   2.871   3.798   4.403
 2922SOL    HW1 8901   2.885   3.828   4.493
 2922SOL    HW2 8902   2.949   3.747   4.382
 2923SOL     OW 8903   3.269   4.857   4.595
 2923SOL    HW1 8904   3.356   4.878   4.629
 2923SOL    HW2 8905   3.210   4.875   4.668
 2924SOL     OW 8906   3.398   4.333   4.662
 2924SOL    HW1 8907   3.446   4.315   4.742
 2924SOL    HW2 8908   3.337   4.403   4.685
 2925SOL     OW 8909   3.712   4.569   4.133
 2925SOL    HW1 8910   3.769   4.514   4.186
 2925SOL    HW2 8911   3.686   4.514   4.060
 2926SOL     OW 8912   3.310   4.267   3.777
 2926SOL    HW1 8913   3.245   4.262   3.847
 2926SOL    HW2 8914   3.305   4.358   3.747
 2927SOL     OW 8915   2.353   4.013   4.058
 2927SOL    HW1 8916   2.328   3.942   4.117
 2927SOL    HW2 8917   2.400   3.970   3.986
 2928SOL     OW 8918   3.512   4.848   4.764
 2928SOL    HW1 8919   3.569   4.832   4.688
 2928SOL    HW2 8920   3.505   4.763   4.807
 2929SOL     OW 8921   2.579   4.794   4.062
 2929SOL    HW1 8922   2.627   4.852   4.122
 2929SOL    HW2 8923   2.488   4.800   4.091
 2930SOL     OW 8924   2.321   4.562   4.916
 2930SOL    HW1 8925   2.367   4.591   4.995
 2930SOL    HW2 8926   2.234   4.602   4.924
 2931SOL     OW 8927   2.241   4.836   4.243
 2931SOL    HW1 8928   2.304   4.900   4.209
 2931SOL    HW2 8929   2.215   4.784   4.167
 2932SOL     OW 8930   2.401   4.206   4.511
 2932SOL    HW1 8931   2.338   4.214   4.582
 2932SOL    HW2 8932   2.417   4.296   4.483
 2933SOL     OW 8933   3.451   4.333   4.194
 2933SOL    HW1 8934   3.403   4.402   4.240
 2933SOL    HW2 8935   3.449   4.258   4.254
 2934SOL     OW 8936   2.451   4.602   4.687
 2934SOL    HW1 8937   2.383   4.629   4.625
 2934SOL    HW2 8938   2.404   4.587   4.769
 2935SOL     OW 8939   3.266   4.552   4.737
 2935SOL    HW1 8940   3.330   4.591   4.796
 2935SOL    HW2 8941   3.186   4.602   4.753
 2936SOL     OW 8942   3.134   4.251   3.980
 2936SOL    HW1 8943   3.119   4.179   4.041
 2936SOL    HW2 8944   3.073   4.319   4.008
 2937SOL     OW 8945   2.229   3.883   4.975
 2937SOL    HW1 8946   2.319   3.886   5.007
 2937SOL    HW2 8947   2.209   3.790   4.966
 2938SOL     OW 8948   2.566   4.362   4.775
 2938SOL    HW1 8949   2.489   4.336   4.825
 2938SOL    HW2 8950   2.540   4.445   4.734
 2939SOL     OW 8951   2.157   3.786   4.338
 2939SOL    HW1 8952   2.174   3.735   4.417
 2939SOL    HW2 8953   2.242   3.794   4.295
 2940SOL     OW 8954   3.518   4.076   4.071
 2940SOL    HW1 8955   3.559   4.163   4.068
 2940SOL    HW2 8956   3.425   4.094   4.088
 2941SOL     OW 8957   2.928   4.447   4.691
 2941SOL    HW1 8958   2.919   4.478   4.781
 2941SOL    HW2 8959   2.869   4.372   4.685
 2942SOL     OW 8960   3.396   4.000   3.825
 2942SOL    HW1 8961   3.473   4.006   3.882
 2942SOL    HW2 8962   3.362   4.090   3.821
 2943SOL     OW 8963   3.120   4.515   3.735
 2943SOL    HW1 8964   3.164   4.544   3.815
 2943SOL    HW2 8965   3.170   4.556   3.664
 2944SOL     OW 8966   2.133   4.550   4.645
 2944SOL    HW1 8967   2.144   4.531   4.739
 2944SOL    HW2 8968   2.116   4.644   4.642
 2945SOL     OW 8969   2.208   4.223   4.701
 2945SOL    HW1 8970   2.139   4.280   4.733
 2945SOL    HW2 8971   2.180   4.135   4.726
 2946SOL     OW 8972   3.018   3.962   0.184
 2946SOL    HW1 8973   2.999   3.991   0.095
 2946SOL    HW2 8974   3.084   3.894   0.174
 2947SOL     OW 8975   1.834   0.031   3.898
 2947SOL    HW1 8976   1.871  -0.044   3.944
 2947SOL    HW2 8977   1.739   0.020   3.907
 2948SOL     OW 8978   2.873   4.514   4.966
 2948SOL    HW1 8979   2.927   4.581   5.009
 2948SOL    HW2 8980   2.787   4.555   4.958
 2949SOL     OW 8981   1.965   4.300   4.840
 2949SOL    HW1 8982   2.000   4.307   4.929
 2949SOL    HW2 8983   1.870   4.293   4.852
 2950SOL     OW 8984   2.703   4.312   4.064
 2950SOL    HW1 8985   2.678   4.226   4.097
 2950SOL    HW2 8986   2.621   4.360   4.057
 2951SOL     OW 8987   3.530   4.329   4.905
 2951SOL    HW1 8988   3.503   4.273   4.978
 2951SOL    HW2 8989   3.623   4.306   4.892
 2952SOL     OW 8990   2.508   4.181   4.998
 2952SOL    HW1 8991   2.586   4.211   4.951
 2952SOL    HW2 8992   2.527   4.090   5.020
 2953SOL     OW 8993   2.280   4.242   3.919
 2953SOL    HW1 8994   2.367   4.280   3.913
 2953SOL    HW2 8995   2.291   4.164   3.974
 2954SOL     OW 8996   1.994   4.843   0.169
 2954SOL    HW1 8997   2.068   4.871   0.223
 2954SOL    HW2 8998   2.003   4.894   0.088
 2955SOL     OW 8999   3.175   4.769   4.917
 2955SOL    HW1 9000   3.239   4.814   4.973
 2955SOL    HW2 9001   3.169   4.681   4.954
 2956SOL     OW 9002   3.172   4.603   4.006
 2956SOL    HW1 9003   3.119   4.534   4.046
 2956SOL    HW2 9004   3.135   4.684   4.040
 2957SOL     OW 9005   1.946   4.916   4.846
 2957SOL    HW1 9006   1.922   5.003   4.879
 2957SOL    HW2 9007   1.880   4.896   4.780
 2958SOL     OW 9008   3.537   3.819   4.193
 2958SOL    HW1 9009   3.549   3.909   4.160
 2958SOL    HW2 9010   3.592   3.766   4.136
 2959SOL     OW 9011   3.117   4.705   4.405
 2959SOL    HW1 9012   3.177   4.729   4.476
 2959SOL    HW2 9013   3.101   4.612   4.418
 2960SOL     OW 9014   3.671   3.925   4.640
 2960SOL    HW1 9015   3.691   3.833   4.660
 2960SOL    HW2 9016   3.706   3.939   4.552
 2961SOL     OW 9017   2.055   4.021   4.446
 2961SOL    HW1 9018   2.123   4.044   4.509
 2961SOL    HW2 9019   2.088   3.942   4.403
 2962SOL     OW 9020   2.676   4.724   0.006
 2962SOL    HW1 9021   2.591   4.716   0.050
 2962SOL    HW2 9022   2.662   4.790  -0.061
 2963SOL     OW 9023   2.777   4.623   3.973
 2963SOL    HW1 9024   2.705   4.677   4.004
 2963SOL    HW2 9025   2.740   4.572   3.901
 2964SOL     OW 9026   3.480   4.977   5.006
 2964SOL    HW1 9027   3.422   5.053   4.994
 2964SOL    HW2 9028   3.488   4.939   4.919
 2965SOL     OW 9029   2.879   4.832   4.428
 2965SOL    HW1 9030   2.963   4.790   4.412
 2965SOL    HW2 9031   2.840   4.781   4.499
 2966SOL     OW 9032   2.871   3.958   4.700
 2966SOL    HW1 9033   2.963   3.979   4.684
 2966SOL    HW2 9034   2.826   4.042   4.690
 2967SOL     OW 9035   3.655   4.151   0.132
 2967SOL    HW1 9036   3.695   4.099   0.203
 2967SOL    HW2 9037   3.666   4.097   0.054
 2968SOL     OW 9038   1.907   4.039   3.737
 2968SOL    HW1 9039   1.892   4.015   3.828
 2968SOL    HW2 9040   1.861   4.121   3.726
 2969SOL     OW 9041   1.908   3.869   3.986
 2969SOL    HW1 9042   1.865   3.910   4.061
 2969SOL    HW2 9043   1.883   3.777   3.991
 2970SOL     OW 9044   3.490   4.610   4.908
 2970SOL    HW1 9045   3.512   4.638   4.997
 2970SOL    HW2 9046   3.504   4.515   4.909
 2971SOL     OW 9047   3.095   4.061   4.168
 2971SOL    HW1 9048   3.143   3.978   4.178
 2971SOL    HW2 9049   3.101   4.103   4.254
 2972SOL     OW 9050   2.464   4.455   4.393
 2972SOL    HW1 9051   2.546   4.413   4.366
 2972SOL    HW2 9052   2.486   4.547   4.404
 2973SOL     OW 9053   3.569   4.681   0.186
 2973SOL    HW1 9054   3.657   4.717   0.196
 2973SOL    HW2 9055   3.579   4.588   0.206
 2974SOL     OW 9056   2.675   4.722   4.596
 2974SOL    HW1 9057   2.613   4.666   4.642
 2974SOL    HW2 9058   2.648   4.717   4.504
 2975SOL     OW 9059   2.956   4.732   3.800
 2975SOL    HW1 9060   2.898   4.702   3.870
 2975SOL    HW2 9061   3.005   4.654   3.774
 2976SOL     OW 9062   1.882   4.964   4.344
 2976SOL    HW1 9063   1.964   5.012   4.356
 2976SOL    HW2 9064   1.906   4.890   4.288
 2977SOL     OW 9065   3.721   3.905   0.003
 2977SOL    HW1 9066   3.721   3.886   0.097
 2977SOL    HW2 9067   3.654   3.847  -0.032
 2978SOL     OW 9068   2.299   4.196   4.253
 2978SOL    HW1 9069   2.335   4.174   4.339
 2978SOL    HW2 9070   2.333   4.128   4.195
 2979SOL     OW 9071   3.250   3.915   4.867
 2979SOL    HW1 9072   3.312   3.936   4.936
 2979SOL    HW2 9073   3.281   3.832   4.830
 2980SOL     OW 9074   2.768   3.735   4.828
 2980SOL    HW1 9075   2.765   3.751   4.923
 2980SOL    HW2 9076   2.809   3.814   4.792
 2981SOL     OW 9077   2.601   0.083   3.979
 2981SOL    HW1 9078   2.561   0.044   4.057
 2981SOL    HW2 9079   2.642   0.010   3.934
 2982SOL     OW 9080   3.232   3.791   3.909
 2982SOL    HW1 9081   3.280   3.866   3.875
 2982SOL    HW2 9082   3.267   3.716   3.860
 2983SOL     OW 9083   3.158   4.172   4.411
 2983SOL    HW1 9084   3.254   4.176   4.413
 2983SOL    HW2 9085   3.134   4.126   4.491
 2984SOL     OW 9086   3.404   3.911   4.573
 2984SOL    HW1 9087   3.492   3.922   4.610
 2984SOL    HW2 9088   3.394   3.986   4.514
 2985SOL     OW 9089   1.940   4.833   4.048
 2985SOL    HW1 9090   2.029   4.799   4.032
 2985SOL    HW2 9091   1.886   4.754   4.059
 2986SOL     OW 9092   3.948   0.631   0.128
 2986SOL    HW1 9093   3.935   0.697   0.196
 2986SOL    HW2 9094   3.997   0.677   0.059
 2987SOL     OW 9095   3.950   0.256   0.966
 2987SOL    HW1 9096   3.964   0.254   1.061
 2987SOL    HW2 9097   3.955   0.164   0.939
 2988SOL     OW 9098   3.731   0.353   0.654
 2988SOL    HW1 9099   3.652   0.401   0.680
 2988SOL    HW2 9100   3.698   0.277   0.606
 2989SOL     OW 9101   4.255   1.283   1.188
 2989SOL    HW1 9102   4.351   1.287   1.188
 2989SOL    HW2 9103   4.232   1.255   1.277
 2990SOL     OW 9104   4.816   0.668   0.716
 2990SOL    HW1 9105   4.902   0.705   0.737
 2990SOL    HW2 9106   4.786   0.719   0.640
 2991SOL     OW 9107   4.535   1.049   1.086
 2991SOL    HW1 9108   4.620   1.092   1.094
 2991SOL    HW2 9109   4.528   1.027   0.993
 2992SOL     OW 9110   4.581   0.814   1.880
 2992SOL    HW1 9111   4.488   0.839   1.872
 2992SOL    HW2 9112   4.626   0.876   1.823
 2993SOL     OW 9113   4.379   1.020   0.609
 2993SOL    HW1 9114   4.296   1.056   0.638
 2993SOL    HW2 9115   4.368   0.925   0.615
 2994SOL     OW 9116   4.427   1.148   1.837
 2994SOL    HW1 9117   4.356   1.177   1.779
 2994SOL    HW2 9118   4.498   1.125   1.777
 2995SOL     OW 9119   4.033   1.386   1.069
 2995SOL    HW1 9120   4.114   1.344   1.097
 2995SOL    HW2 9121   4.060   1.447   1.001
 2996SOL     OW 9122   4.211   0.419   1.511
 2996SOL    HW1 9123   4.258   0.480   1.568
 2996SOL    HW2 9124   4.172   0.475   1.443
 2997SOL     OW 9125   3.949   1.715   0.490
 2997SOL    HW1 9126   4.037   1.712   0.452
 2997SOL    HW2 9127   3.931   1.624   0.515
 2998SOL     OW 9128   4.844   1.325   1.780
 2998SOL    HW1 9129   4.810   1.241   1.749
 2998SOL    HW2 9130   4.881   1.366   1.702
 2999SOL     OW 9131   3.902   1.451   0.560
 2999SOL    HW1 9132   3.856   1.493   0.632
 2999SOL    HW2 9133   3.880   1.358   0.568
 3000SOL     OW 9134   3.930   1.073   0.848
 3000SOL    HW1 9135   3.889   1.119   0.922
 3000SOL    HW2 9136   3.866   1.006   0.823
 3001SOL     OW 9137   4.336   1.795   1.407
 3001SOL    HW1 9138   4.420   1.758   1.431
 3001SOL    HW2 9139   4.274   1.757   1.469
 3002SOL     OW 9140   4.292   0.960   0.033
 3002SOL    HW1 9141   4.385   0.973   0.054
 3002SOL    HW2 9142   4.258   1.048   0.020
 3003SOL     OW 9143   3.890   0.608   0.599
 3003SOL    HW1 9144   3.953   0.554   0.647
 3003SOL    HW2 9145   3.827   0.545   0.563
 3004SOL     OW 9146   3.834   1.575   0.163
 3004SOL    HW1 9147   3.788   1.639   0.217
 3004SOL    HW2 9148   3.866   1.624   0.087
 3005SOL     OW 9149   3.767   0.767   1.592
 3005SOL    HW1 9150   3.730   0.709   1.658
 3005SOL    HW2 9151   3.795   0.709   1.521
 3006SOL     OW 9152   4.379   1.324   0.730
 3006SOL    HW1 9153   4.350   1.391   0.669
 3006SOL    HW2 9154   4.416   1.255   0.673
 3007SOL     OW 9155   4.578   5.016   0.579
 3007SOL    HW1 9156   4.622   4.933   0.599
 3007SOL    HW2 9157   4.485   4.998   0.593
 3008SOL     OW 9158   3.867   0.981   1.275
 3008SOL    HW1 9159   3.946   0.926   1.267
 3008SOL    HW2 9160   3.864   1.031   1.194
 3009SOL     OW 9161   4.016   0.217   1.838
 3009SOL    HW1 9162   4.067   0.297   1.851
 3009SOL    HW2 9163   4.073   0.160   1.787
 3010SOL     OW 9164   4.295   0.736   0.251
 3010SOL    HW1 9165   4.243   0.743   0.331
 3010SOL    HW2 9166   4.281   0.820   0.207
 3011SOL     OW 9167   4.500   0.602   1.432
 3011SOL    HW1 9168   4.474   0.582   1.522
 3011SOL    HW2 9169   4.583   0.555   1.421
 3012SOL     OW 9170   4.696   0.831   1.480
 3012SOL    HW1 9171   4.716   0.901   1.542
 3012SOL    HW2 9172   4.608   0.801   1.505
 3013SOL     OW 9173   4.708   0.453   1.298
 3013SOL    HW1 9174   4.757   0.383   1.342
 3013SOL    HW2 9175   4.647   0.407   1.240
 3014SOL     OW 9176   4.856   0.787   0.442
 3014SOL    HW1 9177   4.913   0.715   0.468
 3014SOL    HW2 9178   4.913   0.847   0.393
 3015SOL     OW 9179   3.825   0.824   0.755
 3015SOL    HW1 9180   3.892   0.805   0.821
 3015SOL    HW2 9181   3.837   0.755   0.689
 3016SOL     OW 9182   3.867   1.811   1.569
 3016SOL    HW1 9183   3.836   1.804   1.660
 3016SOL    HW2 9184   3.875   1.905   1.554
 3017SOL     OW 9185   4.569   0.345   0.210
 3017SOL    HW1 9186   4.576   0.331   0.304
 3017SOL    HW2 9187   4.605   0.265   0.171
 3018SOL     OW 9188   4.269   0.184   0.874
 3018SOL    HW1 9189   4.298   0.239   0.801
 3018SOL    HW2 9190   4.263   0.096   0.838
 3019SOL     OW 9191   4.686   1.430   0.515
 3019SOL    HW1 9192   4.669   1.441   0.609
 3019SOL    HW2 9193   4.637   1.501   0.474
 3020SOL     OW 9194   4.106   1.813   0.912
 3020SOL    HW1 9195   4.132   1.893   0.957
 3020SOL    HW2 9196   4.072   1.842   0.828
 3021SOL     OW 9197   4.944   1.501   1.569
 3021SOL    HW1 9198   5.014   1.516   1.632
 3021SOL    HW2 9199   4.978   1.534   1.486
 3022SOL     OW 9200   4.015   0.913   0.256
 3022SOL    HW1 9201   3.944   0.891   0.317
 3022SOL    HW2 9202   4.069   0.976   0.305
 3023SOL     OW 9203   4.201   1.228   1.703
 3023SOL    HW1 9204   4.121   1.248   1.751
 3023SOL    HW2 9205   4.176   1.232   1.611
 3024SOL     OW 9206   4.835   1.807   0.216
 3024SOL    HW1 9207   4.869   1.876   0.159
 3024SOL    HW2 9208   4.864   1.725   0.175
 3025SOL     OW 9209   3.916   0.336   1.530
 3025SOL    HW1 9210   3.998   0.290   1.546
 3025SOL    HW2 9211   3.850   0.286   1.578
 3026SOL     OW 9212   4.209   1.734   0.357
 3026SOL    HW1 9213   4.272   1.705   0.291
 3026SOL    HW2 9214   4.147   1.788   0.308
 3027SOL     OW 9215   3.985   1.810   1.218
 3027SOL    HW1 9216   4.064   1.758   1.207
 3027SOL    HW2 9217   3.922   1.750   1.260
 3028SOL     OW 9218   4.680   1.707   0.951
 3028SOL    HW1 9219   4.597   1.751   0.967
 3028SOL    HW2 9220   4.730   1.768   0.897
 3029SOL     OW 9221   4.138   0.708   0.476
 3029SOL    HW1 9222   4.048   0.727   0.505
 3029SOL    HW2 9223   4.143   0.612   0.479
 3030SOL     OW 9224   4.300   0.108   0.087
 3030SOL    HW1 9225   4.318   0.191   0.043
 3030SOL    HW2 9226   4.343   0.042   0.032
 3031SOL     OW 9227   4.530   0.301   1.782
 3031SOL    HW1 9228   4.606   0.246   1.764
 3031SOL    HW2 9229   4.477   0.250   1.843
 3032SOL     OW 9230   4.636   1.510   1.151
 3032SOL    HW1 9231   4.709   1.495   1.211
 3032SOL    HW2 9232   4.664   1.586   1.100
 3033SOL     OW 9233   4.593   1.355   0.925
 3033SOL    HW1 9234   4.576   1.411   1.001
 3033SOL    HW2 9235   4.509   1.348   0.881
 3034SOL     OW 9236   4.692   0.493   0.882
 3034SOL    HW1 9237   4.643   0.548   0.943
 3034SOL    HW2 9238   4.742   0.554   0.828
 3035SOL     OW 9239   4.277   0.039   0.479
 3035SOL    HW1 9240   4.241   0.123   0.450
 3035SOL    HW2 9241   4.344   0.017   0.414
 3036SOL     OW 9242   4.044  -0.024   0.145
 3036SOL    HW1 9243   4.017   0.061   0.111
 3036SOL    HW2 9244   4.140  -0.020   0.146
 3037SOL     OW 9245   4.638   0.271   0.477
 3037SOL    HW1 9246   4.732   0.275   0.492
 3037SOL    HW2 9247   4.611   0.186   0.511
 3038SOL     OW 9248   4.891   0.632   1.513
 3038SOL    HW1 9249   4.961   0.683   1.555
 3038SOL    HW2 9250   4.819   0.695   1.503
 3039SOL     OW 9251   4.952   1.572   0.782
 3039SOL    HW1 9252   5.041   1.544   0.803
 3039SOL    HW2 9253   4.901   1.491   0.777
 3040SOL     OW 9254   4.154   1.139   0.699
 3040SOL    HW1 9255   4.081   1.117   0.756
 3040SOL    HW2 9256   4.198   1.212   0.744
 3041SOL     OW 9257   4.941   1.778   0.609
 3041SOL    HW1 9258   4.931   1.704   0.668
 3041SOL    HW2 9259   4.899   1.750   0.528
 3042SOL     OW 9260   4.809   0.549   5.001
 3042SOL    HW1 9261   4.779   0.640   5.006
 3042SOL    HW2 9262   4.733   0.501   4.967
 3043SOL     OW 9263   3.812   0.554   1.402
 3043SOL    HW1 9264   3.857   0.482   1.446
 3043SOL    HW2 9265   3.719   0.530   1.407
 3044SOL     OW 9266   4.250   0.203   1.150
 3044SOL    HW1 9267   4.318   0.264   1.181
 3044SOL    HW2 9268   4.266   0.196   1.056
 3045SOL     OW 9269   4.497   0.417   0.695
 3045SOL    HW1 9270   4.576   0.435   0.746
 3045SOL    HW2 9271   4.529   0.395   0.608
 3046SOL     OW 9272   4.755   0.080   0.787
 3046SOL    HW1 9273   4.746  -0.010   0.818
 3046SOL    HW2 9274   4.695   0.085   0.712
 3047SOL     OW 9275   4.240   1.410   0.135
 3047SOL    HW1 9276   4.177   1.382   0.202
 3047SOL    HW2 9277   4.253   1.332   0.081
 3048SOL     OW 9278   4.227   0.258   0.310
 3048SOL    HW1 9279   4.215   0.341   0.265
 3048SOL    HW2 9280   4.252   0.196   0.241
 3049SOL     OW 9281   4.801   1.387   1.351
 3049SOL    HW1 9282   4.834   1.421   1.435
 3049SOL    HW2 9283   4.715   1.351   1.372
 3050SOL     OW 9284   4.779   1.166   1.113
 3050SOL    HW1 9285   4.849   1.182   1.176
 3050SOL    HW2 9286   4.744   1.254   1.093
 3051SOL     OW 9287   4.611   0.029   1.391
 3051SOL    HW1 9288   4.670   0.092   1.432
 3051SOL    HW2 9289   4.640   0.025   1.300
 3052SOL     OW 9290   4.448   1.083   0.350
 3052SOL    HW1 9291   4.406   1.068   0.435
 3052SOL    HW2 9292   4.505   1.008   0.337
 3053SOL     OW 9293   4.094   0.831   1.239
 3053SOL    HW1 9294   4.165   0.852   1.178
 3053SOL    HW2 9295   4.109   0.740   1.263
 3054SOL     OW 9296   3.820   1.635   1.359
 3054SOL    HW1 9297   3.827   1.670   1.448
 3054SOL    HW2 9298   3.798   1.543   1.371
 3055SOL     OW 9299   4.107   1.114   0.420
 3055SOL    HW1 9300   4.118   1.117   0.515
 3055SOL    HW2 9301   4.102   1.207   0.395
 3056SOL     OW 9302   4.328   0.557   0.863
 3056SOL    HW1 9303   4.393   0.572   0.932
 3056SOL    HW2 9304   4.372   0.500   0.800
 3057SOL     OW 9305   4.954   1.383   0.481
 3057SOL    HW1 9306   4.861   1.399   0.497
 3057SOL    HW2 9307   4.957   1.343   0.394
 3058SOL     OW 9308   4.061   1.499   1.319
 3058SOL    HW1 9309   3.984   1.549   1.344
 3058SOL    HW2 9310   4.036   1.456   1.237
 3059SOL     OW 9311   4.128   0.756   1.605
 3059SOL    HW1 9312   4.206   0.789   1.559
 3059SOL    HW2 9313   4.075   0.717   1.536
 3060SOL     OW 9314   4.739   0.102   1.808
 3060SOL    HW1 9315   4.812   0.099   1.869
 3060SOL    HW2 9316   4.734   0.014   1.772
 3061SOL     OW 9317   4.215   0.075   1.712
 3061SOL    HW1 9318   4.271   0.085   1.789
 3061SOL    HW2 9319   4.266   0.112   1.640
 3062SOL     OW 9320   4.292   0.858   1.042
 3062SOL    HW1 9321   4.351   0.933   1.051
 3062SOL    HW2 9322   4.342   0.793   0.994
 3063SOL     OW 9323   0.013   0.868   1.014
 3063SOL    HW1 9324  -0.003   0.811   1.089
 3063SOL    HW2 9325  -0.008   0.955   1.046
 3064SOL     OW 9326   4.929   0.447   0.227
 3064SOL    HW1 9327   4.884   0.480   0.305
 3064SOL    HW2 9328   4.881   0.485   0.153
 3065SOL     OW 9329   3.999   0.227   1.236
 3065SOL    HW1 9330   4.010   0.283   1.313
 3065SOL    HW2 9331   4.089   0.206   1.208
 3066SOL     OW 9332   3.776   1.370   1.351
 3066SOL    HW1 9333   3.812   1.296   1.400
 3066SOL    HW2 9334   3.684   1.348   1.338
 3067SOL     OW 9335   4.508   0.635   1.061
 3067SOL    HW1 9336   4.526   0.635   1.155
 3067SOL    HW2 9337   4.568   0.701   1.025
 3068SOL     OW 9338   3.974   0.027   0.657
 3068SOL    HW1 9339   4.057   0.032   0.704
 3068SOL    HW2 9340   3.994  -0.022   0.577
 3069SOL     OW 9341   4.708   0.790   0.981
 3069SOL    HW1 9342   4.745   0.778   1.068
 3069SOL    HW2 9343   4.754   0.866   0.946
 3070SOL     OW 9344   4.679   1.585   1.702
 3070SOL    HW1 9345   4.651   1.523   1.769
 3070SOL    HW2 9346   4.770   1.562   1.684
 3071SOL     OW 9347   4.070   0.905   1.821
 3071SOL    HW1 9348   4.139   0.970   1.808
 3071SOL    HW2 9349   4.081   0.843   1.748
 3072SOL     OW 9350   4.836   1.320   0.812
 3072SOL    HW1 9351   4.897   1.304   0.884
 3072SOL    HW2 9352   4.751   1.329   0.853
 3073SOL     OW 9353   4.040   0.824   0.923
 3073SOL    HW1 9354   4.124   0.819   0.968
 3073SOL    HW2 9355   4.028   0.917   0.905
 3074SOL     OW 9356   4.101   0.497   1.040
 3074SOL    HW1 9357   4.161   0.530   0.973
 3074SOL    HW2 9358   4.053   0.426   0.996
 3075SOL     OW 9359   4.851   0.403   1.659
 3075SOL    HW1 9360   4.806   0.438   1.736
 3075SOL    HW2 9361   4.863   0.479   1.602
 3076SOL     OW 9362   4.821   0.233   1.430
 3076SOL    HW1 9363   4.840   0.268   1.517
 3076SOL    HW2 9364   4.897   0.180   1.408
 3077SOL     OW 9365   3.676   1.377   0.262
 3077SOL    HW1 9366   3.732   1.448   0.231
 3077SOL    HW2 9367   3.728   1.298   0.245
 3078SOL     OW 9368   3.823   1.742   0.942
 3078SOL    HW1 9369   3.908   1.768   0.976
 3078SOL    HW2 9370   3.762   1.761   1.013
 3079SOL     OW 9371   4.293   1.611   0.919
 3079SOL    HW1 9372   4.292   1.599   1.014
 3079SOL    HW2 9373   4.216   1.665   0.902
 3080SOL     OW 9374   4.766   0.724   1.236
 3080SOL    HW1 9375   4.747   0.772   1.316
 3080SOL    HW2 9376   4.763   0.632   1.262
 3081SOL     OW 9377   3.738   0.503   1.131
 3081SOL    HW1 9378   3.774   0.540   1.212
 3081SOL    HW2 9379   3.782   0.552   1.062
 3082SOL     OW 9380   3.907   0.511   1.751
 3082SOL    HW1 9381   3.811   0.507   1.759
 3082SOL    HW2 9382   3.926   0.460   1.673
 3083SOL     OW 9383   4.553   0.628   0.245
 3083SOL    HW1 9384   4.460   0.650   0.251
 3083SOL    HW2 9385   4.555   0.533   0.230
 3084SOL     OW 9386   3.947   1.550   1.735
 3084SOL    HW1 9387   4.019   1.589   1.685
 3084SOL    HW2 9388   3.926   1.616   1.801
 3085SOL     OW 9389   4.412   0.413   1.240
 3085SOL    HW1 9390   4.422   0.470   1.316
 3085SOL    HW2 9391   4.385   0.471   1.169
 3086SOL     OW 9392   4.580   1.676   1.459
 3086SOL    HW1 9393   4.616   1.641   1.541
 3086SOL    HW2 9394   4.583   1.602   1.399
 3087SOL     OW 9395   4.187   0.497   0.172
 3087SOL    HW1 9396   4.096   0.524   0.164
 3087SOL    HW2 9397   4.232   0.576   0.202
 3088SOL     OW 9398   3.883   1.156   1.485
 3088SOL    HW1 9399   3.856   1.117   1.568
 3088SOL    HW2 9400   3.874   1.085   1.421
 3089SOL     OW 9401   4.966   1.711   1.096
 3089SOL    HW1 9402   4.912   1.781   1.132
 3089SOL    HW2 9403   4.907   1.663   1.038
 3090SOL     OW 9404   3.818   1.212   1.059
 3090SOL    HW1 9405   3.890   1.275   1.062
 3090SOL    HW2 9406   3.749   1.252   1.110
 3091SOL     OW 9407   4.429   1.682   1.785
 3091SOL    HW1 9408   4.516   1.669   1.748
 3091SOL    HW2 9409   4.396   1.761   1.741
 3092SOL     OW 9410   4.678   0.092   0.141
 3092SOL    HW1 9411   4.764   0.073   0.179
 3092SOL    HW2 9412   4.684   0.058   0.052
 3093SOL     OW 9413   3.832   1.830   1.838
 3093SOL    HW1 9414   3.788   1.821   1.923
 3093SOL    HW2 9415   3.886   1.908   1.846
 3094SOL     OW 9416   4.556   1.301   1.426
 3094SOL    HW1 9417   4.505   1.335   1.499
 3094SOL    HW2 9418   4.528   1.210   1.417
 3095SOL     OW 9419   4.382   1.636   0.148
 3095SOL    HW1 9420   4.397   1.657   0.056
 3095SOL    HW2 9421   4.333   1.554   0.146
 3096SOL     OW 9422   3.995   0.368   0.716
 3096SOL    HW1 9423   3.999   0.328   0.803
 3096SOL    HW2 9424   3.904   0.355   0.689
 3097SOL     OW 9425   4.505   1.030   1.354
 3097SOL    HW1 9426   4.593   1.002   1.378
 3097SOL    HW2 9427   4.507   1.037   1.259
 3098SOL     OW 9428   4.632   0.884   0.299
 3098SOL    HW1 9429   4.705   0.866   0.358
 3098SOL    HW2 9430   4.601   0.797   0.271
 3099SOL     OW 9431   4.129   1.268   1.446
 3099SOL    HW1 9432   4.043   1.226   1.453
 3099SOL    HW2 9433   4.111   1.355   1.412
 3100SOL     OW 9434   4.860   1.061   0.696
 3100SOL    HW1 9435   4.840   1.147   0.733
 3100SOL    HW2 9436   4.791   1.045   0.633
 3101SOL     OW 9437   4.747   0.251   0.997
 3101SOL    HW1 9438   4.727   0.338   0.963
 3101SOL    HW2 9439   4.755   0.196   0.919
 3102SOL     OW 9440   4.324   1.508   0.531
 3102SOL    HW1 9441   4.406   1.538   0.492
 3102SOL    HW2 9442   4.256   1.558   0.486
 3103SOL     OW 9443   4.018   1.375   0.313
 3103SOL    HW1 9444   3.989   1.402   0.400
 3103SOL    HW2 9445   3.967   1.430   0.253
 3104SOL     OW 9446   3.832   1.003   1.716
 3104SOL    HW1 9447   3.915   0.986   1.760
 3104SOL    HW2 9448   3.811   0.921   1.672
 3105SOL     OW 9449   4.327   0.172   1.490
 3105SOL    HW1 9450   4.298   0.262   1.485
 3105SOL    HW2 9451   4.406   0.169   1.435
 3106SOL     OW 9452   3.736   0.266   0.319
 3106SOL    HW1 9453   3.691   0.234   0.397
 3106SOL    HW2 9454   3.743   0.189   0.262
 3107SOL     OW 9455   4.345   0.833   1.465
 3107SOL    HW1 9456   4.384   0.912   1.427
 3107SOL    HW2 9457   4.397   0.761   1.429
 3108SOL     OW 9458   4.412   0.543   1.684
 3108SOL    HW1 9459   4.458   0.470   1.724
 3108SOL    HW2 9460   4.375   0.592   1.758
 3109SOL     OW 9461   4.129   1.722   1.590
 3109SOL    HW1 9462   4.175   1.792   1.637
 3109SOL    HW2 9463   4.045   1.760   1.566
 3110SOL     OW 9464   4.340   0.757   0.655
 3110SOL    HW1 9465   4.330   0.687   0.720
 3110SOL    HW2 9466   4.274   0.738   0.589
 3111SOL     OW 9467   4.606   1.302   0.007
 3111SOL    HW1 9468   4.591   1.316   0.101
 3111SOL    HW2 9469   4.582   1.386  -0.033
 3112SOL     OW 9470   4.440   1.841   0.948
 3112SOL    HW1 9471   4.404   1.885   1.025
 3112SOL    HW2 9472   4.385   1.763   0.937
 3113SOL     OW 9473   4.526   0.964   0.833
 3113SOL    HW1 9474   4.479   0.993   0.754
 3113SOL    HW2 9475   4.558   0.877   0.811
 3114SOL     OW 9476   4.902   1.007   0.052
 3114SOL    HW1 9477   4.919   0.999   0.146
 3114SOL    HW2 9478   4.843   0.933   0.032
 3115SOL     OW 9479   3.976   1.303   1.853
 3115SOL    HW1 9480   4.042   1.322   1.920
 3115SOL    HW2 9481   3.959   1.387   1.810
 3116SOL     OW 9482   3.822   1.198   0.618
 3116SOL    HW1 9483   3.861   1.168   0.700
 3116SOL    HW2 9484   3.785   1.119   0.579
 3117SOL     OW 9485   4.405   1.405   1.631
 3117SOL    HW1 9486   4.331   1.351   1.660
 3117SOL    HW2 9487   4.382   1.493   1.660
 3118SOL     OW 9488   4.147   0.442   0.502
 3118SOL    HW1 9489   4.101   0.403   0.576
 3118SOL    HW2 9490   4.171   0.368   0.446
 3119SOL     OW 9491   4.081   0.557   1.306
 3119SOL    HW1 9492   3.987   0.568   1.319
 3119SOL    HW2 9493   4.090   0.532   1.214
 3120SOL     OW 9494   4.543   1.622   0.712
 3120SOL    HW1 9495   4.590   1.626   0.795
 3120SOL    HW2 9496   4.456   1.590   0.736
 3121SOL     OW 9497   4.720   0.021   1.138
 3121SOL    HW1 9498   4.813  -0.001   1.147
 3121SOL    HW2 9499   4.718   0.107   1.097
 3122SOL     OW 9500   4.564   1.316   0.271
 3122SOL    HW1 9501   4.606   1.344   0.352
 3122SOL    HW2 9502   4.510   1.241   0.297
 3123SOL     OW 9503   4.266   1.634   1.190
 3123SOL    HW1 9504   4.217   1.573   1.245
 3123SOL    HW2 9505   4.302   1.698   1.251
 3124SOL     OW 9506   4.537   1.615   0.382
 3124SOL    HW1 9507   4.560   1.708   0.383
 3124SOL    HW2 9508   4.500   1.601   0.295
 3125SOL     OW 9509   3.977   0.666   1.960
 3125SOL    HW1 9510   4.002   0.746   1.913
 3125SOL    HW2 9511   3.954   0.604   1.891
 3126SOL     OW 9512   3.932   0.282   2.843
 3126SOL    HW1 9513   3.955   0.206   2.897
 3126SOL    HW2 9514   3.885   0.340   2.902
 3127SOL     OW 9515   3.731   0.319   2.533
 3127SOL    HW1 9516   3.817   0.353   2.509
 3127SOL    HW2 9517   3.673   0.395   2.523
 3128SOL     OW 9518   4.298   1.249   3.092
 3128SOL    HW1 9519   4.377   1.273   3.142
 3128SOL    HW2 9520   4.330   1.234   3.003
 3129SOL     OW 9521   4.861   0.695   2.562
 3129SOL    HW1 9522   4.830   0.609   2.588
 3129SOL    HW2 9523   4.841   0.701   2.469
 3130SOL     OW 9524   4.472   1.125   2.895
 3130SOL    HW1 9525   4.415   1.056   2.928
 3130SOL    HW2 9526   4.524   1.083   2.827
 3131SOL     OW 9527   4.610   0.776   3.680
 3131SOL    HW1 9528   4.629   0.828   3.602
 3131SOL    HW2 9529   4.536   0.721   3.654
 3132SOL     OW 9530   4.420   1.005   2.506
 3132SOL    HW1 9531   4.493   1.028   2.564
 3132SOL    HW2 9532   4.343   1.043   2.548
 3133SOL     OW 9533   4.401   1.118   3.683
 3133SOL    HW1 9534   4.481   1.065   3.679
 3133SOL    HW2 9535   4.432   1.209   3.676
 3134SOL     OW 9536   4.025   1.423   2.989
 3134SOL    HW1 9537   4.102   1.448   2.937
 3134SOL    HW2 9538   3.970   1.374   2.928
 3135SOL     OW 9539   4.181   0.439   3.332
 3135SOL    HW1 9540   4.159   0.461   3.422
 3135SOL    HW2 9541   4.117   0.487   3.279
 3136SOL     OW 9542   3.888   1.719   2.341
 3136SOL    HW1 9543   3.797   1.714   2.369
 3136SOL    HW2 9544   3.928   1.637   2.371
 3137SOL     OW 9545   4.875   1.288   3.504
 3137SOL    HW1 9546   4.921   1.370   3.517
 3137SOL    HW2 9547   4.858   1.284   3.410
 3138SOL     OW 9548   3.976   1.471   2.431
 3138SOL    HW1 9549   4.066   1.445   2.449
 3138SOL    HW2 9550   3.923   1.417   2.490
 3139SOL     OW 9551   3.949   1.091   2.749
 3139SOL    HW1 9552   4.039   1.074   2.721
 3139SOL    HW2 9553   3.924   1.170   2.700
 3140SOL     OW 9554   4.383   1.805   3.292
 3140SOL    HW1 9555   4.468   1.771   3.320
 3140SOL    HW2 9556   4.352   1.744   3.225
 3141SOL     OW 9557   4.323   0.958   1.998
 3141SOL    HW1 9558   4.237   0.994   2.023
 3141SOL    HW2 9559   4.364   1.028   1.947
 3142SOL     OW 9560   3.790   0.630   2.429
 3142SOL    HW1 9561   3.743   0.690   2.371
 3142SOL    HW2 9562   3.833   0.568   2.370
 3143SOL     OW 9563   3.810   1.564   2.016
 3143SOL    HW1 9564   3.783   1.652   2.042
 3143SOL    HW2 9565   3.744   1.538   1.950
 3144SOL     OW 9566   3.815   0.735   3.484
 3144SOL    HW1 9567   3.867   0.800   3.531
 3144SOL    HW2 9568   3.751   0.705   3.548
 3145SOL     OW 9569   4.314   1.370   2.589
 3145SOL    HW1 9570   4.398   1.398   2.624
 3145SOL    HW2 9571   4.314   1.401   2.498
 3146SOL     OW 9572   4.531   4.991   2.418
 3146SOL    HW1 9573   4.585   5.024   2.491
 3146SOL    HW2 9574   4.498   4.907   2.449
 3147SOL     OW 9575   3.947   0.986   3.089
 3147SOL    HW1 9576   3.910   1.017   3.172
 3147SOL    HW2 9577   3.912   1.046   3.023
 3148SOL     OW 9578   4.001   0.136   3.681
 3148SOL    HW1 9579   3.943   0.203   3.717
 3148SOL    HW2 9580   3.987   0.141   3.586
 3149SOL     OW 9581   4.381   0.725   2.132
 3149SOL    HW1 9582   4.360   0.803   2.082
 3149SOL    HW2 9583   4.316   0.660   2.105
 3150SOL     OW 9584   4.584   0.613   3.356
 3150SOL    HW1 9585   4.594   0.531   3.308
 3150SOL    HW2 9586   4.530   0.591   3.431
 3151SOL     OW 9587   4.680   0.930   3.455
 3151SOL    HW1 9588   4.746   0.866   3.428
 3151SOL    HW2 9589   4.645   0.964   3.372
 3152SOL     OW 9590   4.744   0.404   3.158
 3152SOL    HW1 9591   4.822   0.458   3.143
 3152SOL    HW2 9592   4.727   0.362   3.074
 3153SOL     OW 9593   4.745   0.691   2.307
 3153SOL    HW1 9594   4.671   0.679   2.366
 3153SOL    HW2 9595   4.720   0.766   2.252
 3154SOL     OW 9596   3.817   0.779   2.657
 3154SOL    HW1 9597   3.740   0.835   2.658
 3154SOL    HW2 9598   3.802   0.718   2.584
 3155SOL     OW 9599   3.854   1.822   3.431
 3155SOL    HW1 9600   3.871   1.912   3.403
 3155SOL    HW2 9601   3.785   1.791   3.373
 3156SOL     OW 9602   4.609   0.274   2.073
 3156SOL    HW1 9603   4.642   0.298   1.987
 3156SOL    HW2 9604   4.580   0.356   2.112
 3157SOL     OW 9605   4.333   0.154   2.703
 3157SOL    HW1 9606   4.325   0.173   2.796
 3157SOL    HW2 9607   4.339   0.240   2.661
 3158SOL     OW 9608   4.739   1.457   2.352
 3158SOL    HW1 9609   4.827   1.420   2.348
 3158SOL    HW2 9610   4.680   1.381   2.346
 3159SOL     OW 9611   4.112   1.753   2.752
 3159SOL    HW1 9612   4.017   1.767   2.753
 3159SOL    HW2 9613   4.149   1.841   2.744
 3160SOL     OW 9614   4.870   1.564   3.378
 3160SOL    HW1 9615   4.816   1.578   3.456
 3160SOL    HW2 9616   4.830   1.488   3.335
 3161SOL     OW 9617   4.046   0.971   2.096
 3161SOL    HW1 9618   4.037   0.953   2.003
 3161SOL    HW2 9619   4.048   0.885   2.137
 3162SOL     OW 9620   4.192   1.307   3.646
 3162SOL    HW1 9621   4.228   1.219   3.656
 3162SOL    HW2 9622   4.098   1.296   3.659
 3163SOL     OW 9623   4.907   1.822   2.096
 3163SOL    HW1 9624   4.963   1.869   2.158
 3163SOL    HW2 9625   4.942   1.844   2.010
 3164SOL     OW 9626   3.895   0.303   3.342
 3164SOL    HW1 9627   3.919   0.352   3.421
 3164SOL    HW2 9628   3.945   0.221   3.349
 3165SOL     OW 9629   4.190   1.789   2.239
 3165SOL    HW1 9630   4.103   1.750   2.229
 3165SOL    HW2 9631   4.245   1.741   2.178
 3166SOL     OW 9632   3.979   1.797   3.100
 3166SOL    HW1 9633   3.921   1.733   3.141
 3166SOL    HW2 9634   4.032   1.746   3.040
 3167SOL     OW 9635   4.702   1.640   2.764
 3167SOL    HW1 9636   4.692   1.734   2.774
 3167SOL    HW2 9637   4.629   1.613   2.708
 3168SOL     OW 9638   4.064   0.699   2.357
 3168SOL    HW1 9639   4.141   0.732   2.402
 3168SOL    HW2 9640   3.991   0.720   2.415
 3169SOL     OW 9641   4.367   0.094   1.933
 3169SOL    HW1 9642   4.433   0.055   1.990
 3169SOL    HW2 9643   4.312   0.145   1.993
 3170SOL     OW 9644   4.497   0.272   3.565
 3170SOL    HW1 9645   4.568   0.333   3.588
 3170SOL    HW2 9646   4.528   0.187   3.596
 3171SOL     OW 9647   4.629   1.579   3.047
 3171SOL    HW1 9648   4.534   1.568   3.055
 3171SOL    HW2 9649   4.645   1.576   2.953
 3172SOL     OW 9650   4.501   1.393   2.811
 3172SOL    HW1 9651   4.424   1.443   2.837
 3172SOL    HW2 9652   4.485   1.305   2.843
 3173SOL     OW 9653   4.671   0.528   2.758
 3173SOL    HW1 9654   4.598   0.552   2.815
 3173SOL    HW2 9655   4.630   0.516   2.672
 3174SOL     OW 9656   4.290   0.135   2.387
 3174SOL    HW1 9657   4.372   0.093   2.412
 3174SOL    HW2 9658   4.229   0.114   2.458
 3175SOL     OW 9659   4.027   0.051   2.068
 3175SOL    HW1 9660   4.102   0.098   2.105
 3175SOL    HW2 9661   4.009   0.096   1.985
 3176SOL     OW 9662   4.683   0.285   2.408
 3176SOL    HW1 9663   4.772   0.319   2.406
 3176SOL    HW2 9664   4.678   0.226   2.332
 3177SOL     OW 9665   4.847   0.726   3.368
 3177SOL    HW1 9666   4.776   0.665   3.391
 3177SOL    HW2 9667   4.833   0.744   3.275
 3178SOL     OW 9668   4.937   1.567   2.631
 3178SOL    HW1 9669   4.854   1.575   2.679
 3178SOL    HW2 9670   4.944   1.473   2.612
 3179SOL     OW 9671   4.195   1.125   2.609
 3179SOL    HW1 9672   4.233   1.213   2.611
 3179SOL    HW2 9673   4.153   1.119   2.523
 3180SOL     OW 9674   0.002   1.806   2.532
 3180SOL    HW1 9675   0.034   1.843   2.614
 3180SOL    HW2 9676  -0.023   1.717   2.554
 3181SOL     OW 9677   4.768   0.555   1.879
 3181SOL    HW1 9678   4.824   0.570   1.956
 3181SOL    HW2 9679   4.705   0.627   1.882
 3182SOL     OW 9680   3.730   0.528   3.306
 3182SOL    HW1 9681   3.768   0.605   3.346
 3182SOL    HW2 9682   3.804   0.468   3.292
 3183SOL     OW 9683   4.308   0.252   2.956
 3183SOL    HW1 9684   4.246   0.222   3.023
 3183SOL    HW2 9685   4.279   0.341   2.936
 3184SOL     OW 9686   4.554   0.504   2.510
 3184SOL    HW1 9687   4.464   0.479   2.533
 3184SOL    HW2 9688   4.590   0.427   2.466
 3185SOL     OW 9689   4.712   0.044   2.624
 3185SOL    HW1 9690   4.771   0.113   2.594
 3185SOL    HW2 9691   4.760  -0.038   2.609
 3186SOL     OW 9692   4.176   1.378   2.023
 3186SOL    HW1 9693   4.245   1.442   2.037
 3186SOL    HW2 9694   4.126   1.378   2.105
 3187SOL     OW 9695   4.235   0.220   2.137
 3187SOL    HW1 9696   4.257   0.186   2.224
 3187SOL    HW2 9697   4.227   0.315   2.150
 3188SOL     OW 9698   4.817   1.325   3.235
 3188SOL    HW1 9699   4.910   1.339   3.214
 3188SOL    HW2 9700   4.780   1.286   3.156
 3189SOL     OW 9701   4.746   1.224   2.993
 3189SOL    HW1 9702   4.665   1.175   2.981
 3189SOL    HW2 9703   4.756   1.274   2.912
 3190SOL     OW 9704   4.600   0.034   3.290
 3190SOL    HW1 9705   4.662   0.047   3.362
 3190SOL    HW2 9706   4.655   0.031   3.211
 3191SOL     OW 9707   4.695   1.136   3.631
 3191SOL    HW1 9708   4.762   1.191   3.590
 3191SOL    HW2 9709   4.686   1.062   3.571
 3192SOL     OW 9710   4.459   1.070   2.241
 3192SOL    HW1 9711   4.451   1.053   2.335
 3192SOL    HW2 9712   4.378   1.037   2.203
 3193SOL     OW 9713   4.150   0.809   3.111
 3193SOL    HW1 9714   4.210   0.836   3.180
 3193SOL    HW2 9715   4.081   0.875   3.112
 3194SOL     OW 9716   3.785   1.595   3.189
 3194SOL    HW1 9717   3.755   1.581   3.279
 3194SOL    HW2 9718   3.787   1.508   3.150
 3195SOL     OW 9719   4.070   1.121   2.368
 3195SOL    HW1 9720   3.979   1.141   2.389
 3195SOL    HW2 9721   4.069   1.098   2.276
 3196SOL     OW 9722   4.305   0.438   2.642
 3196SOL    HW1 9723   4.295   0.502   2.712
 3196SOL    HW2 9724   4.216   0.406   2.626
 3197SOL     OW 9725   4.982   1.329   2.317
 3197SOL    HW1 9726   5.026   1.392   2.260
 3197SOL    HW2 9727   4.990   1.245   2.272
 3198SOL     OW 9728   4.107   1.534   3.232
 3198SOL    HW1 9729   4.092   1.457   3.286
 3198SOL    HW2 9730   4.063   1.515   3.149
 3199SOL     OW 9731   4.177   0.694   3.471
 3199SOL    HW1 9732   4.140   0.752   3.537
 3199SOL    HW2 9733   4.207   0.752   3.401
 3200SOL     OW 9734   4.714   0.092   3.658
 3200SOL    HW1 9735   4.783   0.094   3.724
 3200SOL    HW2 9736   4.722   0.005   3.618
 3201SOL     OW 9737   4.241   0.031   3.587
 3201SOL    HW1 9738   4.158   0.061   3.625
 3201SOL    HW2 9739   4.236   0.057   3.495
 3202SOL     OW 9740   4.310   0.846   2.888
 3202SOL    HW1 9741   4.258   0.830   2.966
 3202SOL    HW2 9742   4.248   0.840   2.815
 3203SOL     OW 9743   0.080   0.809   2.942
 3203SOL    HW1 9744   0.020   0.852   2.881
 3203SOL    HW2 9745   0.161   0.797   2.892
 3204SOL     OW 9746   4.952   0.575   2.143
 3204SOL    HW1 9747   4.955   0.485   2.175
 3204SOL    HW2 9748   4.884   0.617   2.196
 3205SOL     OW 9749   4.105   0.247   3.138
 3205SOL    HW1 9750   4.164   0.261   3.212
 3205SOL    HW2 9751   4.033   0.308   3.154
 3206SOL     OW 9752   3.799   1.312   3.146
 3206SOL    HW1 9753   3.895   1.317   3.149
 3206SOL    HW2 9754   3.779   1.307   3.052
 3207SOL     OW 9755   4.486   0.632   2.929
 3207SOL    HW1 9756   4.446   0.583   3.000
 3207SOL    HW2 9757   4.426   0.706   2.914
 3208SOL     OW 9758   4.032   0.066   2.512
 3208SOL    HW1 9759   3.940   0.053   2.534
 3208SOL    HW2 9760   4.052  -0.003   2.450
 3209SOL     OW 9761   4.783   0.777   2.820
 3209SOL    HW1 9762   4.836   0.779   2.741
 3209SOL    HW2 9763   4.738   0.692   2.817
 3210SOL     OW 9764   4.696   1.610   3.584
 3210SOL    HW1 9765   4.702   1.562   3.667
 3210SOL    HW2 9766   4.604   1.635   3.577
 3211SOL     OW 9767   4.080   0.861   3.651
 3211SOL    HW1 9768   4.120   0.874   3.737
 3211SOL    HW2 9769   4.009   0.925   3.648
 3212SOL     OW 9770   0.277   0.236   2.100
 3212SOL    HW1 9771   0.359   0.268   2.138
 3212SOL    HW2 9772   0.284   0.258   2.007
 3213SOL     OW 9773   4.775   1.341   2.750
 3213SOL    HW1 9774   4.691   1.387   2.751
 3213SOL    HW2 9775   4.768   1.281   2.676
 3214SOL     OW 9776   4.036   0.783   2.814
 3214SOL    HW1 9777   4.007   0.842   2.884
 3214SOL    HW2 9778   3.963   0.783   2.752
 3215SOL     OW 9779   4.114   0.523   2.857
 3215SOL    HW1 9780   4.088   0.613   2.837
 3215SOL    HW2 9781   4.052   0.469   2.809
 3216SOL     OW 9782   4.866   0.372   3.537
 3216SOL    HW1 9783   4.923   0.329   3.601
 3216SOL    HW2 9784   4.825   0.443   3.586
 3217SOL     OW 9785   4.909   0.222   3.313
 3217SOL    HW1 9786   4.894   0.261   3.399
 3217SOL    HW2 9787   4.844   0.264   3.256
 3218SOL     OW 9788   3.737   1.265   2.009
 3218SOL    HW1 9789   3.791   1.309   2.074
 3218SOL    HW2 9790   3.794   1.256   1.932
 3219SOL     OW 9791   3.828   1.780   2.760
 3219SOL    HW1 9792   3.794   1.757   2.846
 3219SOL    HW2 9793   3.783   1.862   2.737
 3220SOL     OW 9794   4.223   1.506   2.814
 3220SOL    HW1 9795   4.197   1.596   2.794
 3220SOL    HW2 9796   4.242   1.468   2.728
 3221SOL     OW 9797   4.763   0.762   3.112
 3221SOL    HW1 9798   4.782   0.800   3.026
 3221SOL    HW2 9799   4.680   0.716   3.101
 3222SOL     OW 9800   3.793   0.454   3.007
 3222SOL    HW1 9801   3.855   0.509   3.053
 3222SOL    HW2 9802   3.713   0.506   3.003
 3223SOL     OW 9803   3.960   0.481   3.545
 3223SOL    HW1 9804   3.975   0.493   3.639
 3223SOL    HW2 9805   3.940   0.569   3.512
 3224SOL     OW 9806   4.566   0.525   2.161
 3224SOL    HW1 9807   4.635   0.569   2.210
 3224SOL    HW2 9808   4.499   0.592   2.148
 3225SOL     OW 9809   3.912   1.538   3.582
 3225SOL    HW1 9810   3.904   1.541   3.678
 3225SOL    HW2 9811   3.992   1.586   3.563
 3226SOL     OW 9812   4.376   0.485   3.140
 3226SOL    HW1 9813   4.314   0.472   3.211
 3226SOL    HW2 9814   4.409   0.398   3.120
 3227SOL     OW 9815   4.654   1.718   3.278
 3227SOL    HW1 9816   4.737   1.690   3.317
 3227SOL    HW2 9817   4.647   1.668   3.197
 3228SOL     OW 9818   4.198   0.538   2.064
 3228SOL    HW1 9819   4.187   0.509   2.155
 3228SOL    HW2 9820   4.112   0.574   2.040
 3229SOL     OW 9821   3.870   1.104   3.336
 3229SOL    HW1 9822   3.946   1.161   3.323
 3229SOL    HW2 9823   3.795   1.162   3.325
 3230SOL     OW 9824   4.942   1.745   2.945
 3230SOL    HW1 9825   4.980   1.708   3.025
 3230SOL    HW2 9826   4.896   1.672   2.904
 3231SOL     OW 9827   3.748   1.304   2.880
 3231SOL    HW1 9828   3.658   1.269   2.881
 3231SOL    HW2 9829   3.743   1.380   2.823
 3232SOL     OW 9830   4.421   1.681   3.586
 3232SOL    HW1 9831   4.379   1.767   3.594
 3232SOL    HW2 9832   4.365   1.633   3.525
 3233SOL     OW 9833   3.851   1.812   3.717
 3233SOL    HW1 9834   3.793   1.888   3.712
 3233SOL    HW2 9835   3.860   1.783   3.626
 3234SOL     OW 9836   4.510   1.303   3.259
 3234SOL    HW1 9837   4.604   1.325   3.259
 3234SOL    HW2 9838   4.480   1.330   3.346
 3235SOL     OW 9839   4.342   1.657   2.047
 3235SOL    HW1 9840   4.426   1.660   2.094
 3235SOL    HW2 9841   4.366   1.661   1.955
 3236SOL     OW 9842   4.054   0.328   2.602
 3236SOL    HW1 9843   4.007   0.309   2.683
 3236SOL    HW2 9844   4.051   0.246   2.553
 3237SOL     OW 9845   4.556   1.025   3.234
 3237SOL    HW1 9846   4.474   0.976   3.222
 3237SOL    HW2 9847   4.529   1.117   3.230
 3238SOL     OW 9848   4.644   0.883   2.143
 3238SOL    HW1 9849   4.581   0.950   2.172
 3238SOL    HW2 9850   4.606   0.848   2.063
 3239SOL     OW 9851   4.091   1.253   3.269
 3239SOL    HW1 9852   4.144   1.260   3.190
 3239SOL    HW2 9853   4.150   1.213   3.334
 3240SOL     OW 9854   4.763   1.139   2.571
 3240SOL    HW1 9855   4.854   1.116   2.555
 3240SOL    HW2 9856   4.725   1.061   2.612
 3241SOL     OW 9857   4.733   0.292   2.907
 3241SOL    HW1 9858   4.780   0.225   2.857
 3241SOL    HW2 9859   4.715   0.361   2.844
 3242SOL     OW 9860   4.326   1.466   2.338
 3242SOL    HW1 9861   4.369   1.550   2.349
 3242SOL    HW2 9862   4.378   1.420   2.272
 3243SOL     OW 9863   3.929   1.382   2.176
 3243SOL    HW1 9864   3.941   1.417   2.264
 3243SOL    HW2 9865   3.899   1.456   2.124
 3244SOL     OW 9866   3.862   1.014   3.603
 3244SOL    HW1 9867   3.775   1.003   3.642
 3244SOL    HW2 9868   3.846   1.041   3.513
 3245SOL     OW 9869   4.356   0.170   3.315
 3245SOL    HW1 9870   4.381   0.225   3.390
 3245SOL    HW2 9871   4.435   0.120   3.296
 3246SOL     OW 9872   3.787   0.321   1.974
 3246SOL    HW1 9873   3.858   0.294   1.916
 3246SOL    HW2 9874   3.707   0.298   1.927
 3247SOL     OW 9875   3.866   0.241   2.228
 3247SOL    HW1 9876   3.913   0.161   2.204
 3247SOL    HW2 9877   3.832   0.275   2.145
 3248SOL     OW 9878   4.368   0.811   3.284
 3248SOL    HW1 9879   4.427   0.815   3.359
 3248SOL    HW2 9880   4.392   0.731   3.238
 3249SOL     OW 9881   4.413   0.599   3.575
 3249SOL    HW1 9882   4.396   0.522   3.629
 3249SOL    HW2 9883   4.326   0.626   3.545
 3250SOL     OW 9884   4.104   1.699   3.464
 3250SOL    HW1 9885   4.026   1.753   3.452
 3250SOL    HW2 9886   4.122   1.663   3.378
 3251SOL     OW 9887   4.304   0.758   2.466
 3251SOL    HW1 9888   4.349   0.842   2.474
 3251SOL    HW2 9889   4.361   0.706   2.410
 3252SOL     OW 9890   4.596   1.383   1.901
 3252SOL    HW1 9891   4.682   1.350   1.876
 3252SOL    HW2 9892   4.534   1.327   1.856
 3253SOL     OW 9893   4.449   1.802   2.791
 3253SOL    HW1 9894   4.506   1.841   2.857
 3253SOL    HW2 9895   4.383   1.869   2.772
 3254SOL     OW 9896   4.599   0.952   2.722
 3254SOL    HW1 9897   4.669   0.905   2.767
 3254SOL    HW2 9898   4.528   0.888   2.714
 3255SOL     OW 9899   4.838   1.018   2.001
 3255SOL    HW1 9900   4.767   0.971   2.045
 3255SOL    HW2 9901   4.807   1.028   1.911
 3256SOL     OW 9902   3.940   1.252   3.721
 3256SOL    HW1 9903   3.862   1.294   3.759
 3256SOL    HW2 9904   3.907   1.169   3.687
 3257SOL     OW 9905   3.807   1.184   2.476
 3257SOL    HW1 9906   3.761   1.176   2.393
 3257SOL    HW2 9907   3.766   1.118   2.532
 3258SOL     OW 9908   4.405   1.394   3.492
 3258SOL    HW1 9909   4.465   1.405   3.565
 3258SOL    HW2 9910   4.320   1.376   3.534
 3259SOL     OW 9911   4.187   0.455   2.320
 3259SOL    HW1 9912   4.190   0.401   2.399
 3259SOL    HW2 9913   4.140   0.534   2.346
 3260SOL     OW 9914   4.034   0.557   3.120
 3260SOL    HW1 9915   4.065   0.648   3.129
 3260SOL    HW2 9916   4.071   0.527   3.037
 3261SOL     OW 9917   4.473   1.627   2.585
 3261SOL    HW1 9918   4.448   1.683   2.660
 3261SOL    HW2 9919   4.488   1.689   2.514
 3262SOL     OW 9920   4.692   0.011   3.032
 3262SOL    HW1 9921   4.674   0.099   2.998
 3262SOL    HW2 9922   4.651  -0.048   2.969
 3263SOL     OW 9923   4.493   1.340   2.158
 3263SOL    HW1 9924   4.525   1.345   2.068
 3263SOL    HW2 9925   4.488   1.246   2.176
 3264SOL     OW 9926   4.371   1.555   3.158
 3264SOL    HW1 9927   4.408   1.486   3.214
 3264SOL    HW2 9928   4.277   1.549   3.170
 3265SOL     OW 9929   3.781   1.038   2.169
 3265SOL    HW1 9930   3.872   1.032   2.142
 3265SOL    HW2 9931   3.746   1.111   2.117
 3266SOL     OW 9932   4.576   1.619   2.201
 3266SOL    HW1 9933   4.647   1.593   2.261
 3266SOL    HW2 9934   4.564   1.542   2.145
 3267SOL     OW 9935   3.955   0.612   3.809
 3267SOL    HW1 9936   3.872   0.612   3.858
 3267SOL    HW2 9937   3.983   0.704   3.810
 3268SOL     OW 9938   3.966   0.246   4.751
 3268SOL    HW1 9939   3.877   0.212   4.743
 3268SOL    HW2 9940   3.988   0.278   4.664
 3269SOL     OW 9941   3.691   0.360   4.288
 3269SOL    HW1 9942   3.761   0.365   4.353
 3269SOL    HW2 9943   3.724   0.301   4.221
 3270SOL     OW 9944   4.260   1.222   4.925
 3270SOL    HW1 9945   4.336   1.210   4.867
 3270SOL    HW2 9946   4.200   1.277   4.875
 3271SOL     OW 9947   4.857   0.698   4.483
 3271SOL    HW1 9948   4.938   0.748   4.479
 3271SOL    HW2 9949   4.823   0.700   4.394
 3272SOL     OW 9950   4.487   1.187   4.763
 3272SOL    HW1 9951   4.551   1.184   4.834
 3272SOL    HW2 9952   4.515   1.118   4.703
 3273SOL     OW 9953   4.385   0.986   4.365
 3273SOL    HW1 9954   4.384   1.066   4.418
 3273SOL    HW2 9955   4.416   1.015   4.279
 3274SOL     OW 9956   4.086   1.409   4.798
 3274SOL    HW1 9957   4.043   1.439   4.878
 3274SOL    HW2 9958   4.015   1.375   4.743
 3275SOL     OW 9959   0.291   1.518   5.005
 3275SOL    HW1 9960   0.281   1.613   5.002
 3275SOL    HW2 9961   0.313   1.493   4.915
 3276SOL     OW 9962   3.911   1.694   4.269
 3276SOL    HW1 9963   3.942   1.780   4.298
 3276SOL    HW2 9964   3.845   1.669   4.334
 3277SOL     OW 9965   4.052   1.453   4.269
 3277SOL    HW1 9966   4.050   1.425   4.361
 3277SOL    HW2 9967   4.003   1.535   4.268
 3278SOL     OW 9968   3.923   1.060   4.633
 3278SOL    HW1 9969   3.997   1.091   4.582
 3278SOL    HW2 9970   3.949   0.973   4.663
 3279SOL     OW 9971   4.293   0.930   3.855
 3279SOL    HW1 9972   4.212   0.965   3.892
 3279SOL    HW2 9973   4.325   1.000   3.797
 3280SOL     OW 9974   3.869   0.637   4.303
 3280SOL    HW1 9975   3.800   0.602   4.245
 3280SOL    HW2 9976   3.899   0.561   4.353
 3281SOL     OW 9977   3.798   1.562   3.840
 3281SOL    HW1 9978   3.799   1.656   3.826
 3281SOL    HW2 9979   3.705   1.538   3.837
 3282SOL     OW 9980   4.324   1.323   4.458
 3282SOL    HW1 9981   4.412   1.348   4.429
 3282SOL    HW2 9982   4.297   1.394   4.516
 3283SOL     OW 9983   4.543   5.018   4.298
 3283SOL    HW1 9984   4.550   4.925   4.319
 3283SOL    HW2 9985   4.562   5.022   4.204
 3284SOL     OW 9986   3.920   0.974   0.005
 3284SOL    HW1 9987   3.963   0.939   0.082
 3284SOL    HW2 9988   3.952   0.920  -0.068
 3285SOL     OW 9989   4.315   0.701   4.001
 3285SOL    HW1 9990   4.248   0.721   4.066
 3285SOL    HW2 9991   4.320   0.779   3.946
 3286SOL     OW 9992   4.759   0.678   4.206
 3286SOL    HW1 9993   4.703   0.629   4.267
 3286SOL    HW2 9994   4.729   0.652   4.120
 3287SOL     OW 9995   3.759   0.847   4.450
 3287SOL    HW1 9996   3.833   0.881   4.500
 3287SOL    HW2 9997   3.795   0.774   4.400
 3288SOL     OW 9998   4.602   0.339   3.949
 3288SOL    HW1 9999   4.669   0.330   3.881
 3288SOL    HW210000   4.556   0.255   3.949
 3289SOL     OW10001   4.328   0.172   4.628
 3289SOL    HW110002   4.356   0.258   4.661
 3289SOL    HW210003   4.264   0.192   4.560
 3290SOL     OW10004   4.707   1.444   4.202
 3290SOL    HW110005   4.699   1.448   4.298
 3290SOL    HW210006   4.792   1.403   4.187
 3291SOL     OW10007   4.126   1.775   4.596
 3291SOL    HW110008   4.031   1.783   4.606
 3291SOL    HW210009   4.157   1.866   4.593
 3292SOL     OW10010   4.025   0.904   3.930
 3292SOL    HW110011   3.946   0.953   3.951
 3292SOL    HW210012   4.045   0.855   4.010
 3293SOL     OW10013   4.799   1.753   3.940
 3293SOL    HW110014   4.817   1.846   3.925
 3293SOL    HW210015   4.874   1.707   3.902
 3294SOL     OW10016   4.144   1.711   4.096
 3294SOL    HW110017   4.187   1.784   4.140
 3294SOL    HW210018   4.063   1.697   4.145
 3295SOL     OW10019   3.963   1.743   4.980
 3295SOL    HW110020   4.003   1.706   4.901
 3295SOL    HW210021   3.963   1.838   4.964
 3296SOL     OW10022   4.700   1.721   4.626
 3296SOL    HW110023   4.775   1.705   4.682
 3296SOL    HW210024   4.641   1.647   4.642
 3297SOL     OW10025   4.078   0.764   4.160
 3297SOL    HW110026   4.004   0.719   4.200
 3297SOL    HW210027   4.110   0.822   4.227
 3298SOL     OW10028   4.374   0.078   3.837
 3298SOL    HW110029   4.320   0.126   3.900
 3298SOL    HW210030   4.328   0.089   3.753
 3299SOL     OW10031   4.576   1.443   4.686
 3299SOL    HW110032   4.559   1.456   4.592
 3299SOL    HW210033   4.534   1.360   4.707
 3300SOL     OW10034   4.702   0.495   4.654
 3300SOL    HW110035   4.753   0.562   4.608
 3300SOL    HW210036   4.630   0.544   4.694
 3301SOL     OW10037   4.264   0.067   4.281
 3301SOL    HW110038   4.357   0.056   4.300
 3301SOL    HW210039   4.262   0.115   4.198
 3302SOL     OW10040   4.012  -0.002   3.933
 3302SOL    HW110041   4.096   0.027   3.967
 3302SOL    HW210042   4.008   0.035   3.845
 3303SOL     OW10043   4.653   0.294   4.222
 3303SOL    HW110044   4.617   0.205   4.220
 3303SOL    HW210045   4.651   0.323   4.131
 3304SOL     OW10046   4.935   1.537   4.512
 3304SOL    HW110047   4.938   1.583   4.596
 3304SOL    HW210048   4.966   1.602   4.448
 3305SOL     OW10049   4.129   1.140   4.484
 3305SOL    HW110050   4.202   1.202   4.477
 3305SOL    HW210051   4.120   1.104   4.396
 3306SOL     OW10052   5.001   1.771   4.367
 3306SOL    HW110053   5.036   1.812   4.447
 3306SOL    HW210054   4.912   1.804   4.360
 3307SOL     OW10055   4.774   0.550   3.723
 3307SOL    HW110056   4.816   0.542   3.808
 3307SOL    HW210057   4.723   0.632   3.728
 3308SOL     OW10058   4.627   0.513   4.376
 3308SOL    HW110059   4.628   0.485   4.468
 3308SOL    HW210060   4.629   0.432   4.326
 3309SOL     OW10061   4.728   0.125   4.486
 3309SOL    HW110062   4.660   0.098   4.425
 3309SOL    HW210063   4.784   0.184   4.436
 3310SOL     OW10064   4.203   1.397   3.912
 3310SOL    HW110065   4.163   1.484   3.912
 3310SOL    HW210066   4.197   1.368   3.821
 3311SOL     OW10067   4.229   0.237   4.025
 3311SOL    HW110068   4.201   0.290   4.100
 3311SOL    HW210069   4.243   0.301   3.955
 3312SOL     OW10070   4.808   1.196   4.858
 3312SOL    HW110071   4.846   1.129   4.914
 3312SOL    HW210072   4.745   1.242   4.913
 3313SOL     OW10073   4.475   1.070   4.116
 3313SOL    HW110074   4.540   1.005   4.088
 3313SOL    HW210075   4.470   1.132   4.043
 3314SOL     OW10076   4.114   0.762   4.956
 3314SOL    HW110077   4.176   0.827   4.990
 3314SOL    HW210078   4.169   0.699   4.909
 3315SOL     OW10079   4.027   1.078   4.235
 3315SOL    HW110080   3.949   1.106   4.284
 3315SOL    HW210081   4.034   1.142   4.164
 3316SOL     OW10082   4.296   0.494   4.596
 3316SOL    HW110083   4.210   0.507   4.637
 3316SOL    HW210084   4.278   0.488   4.503
 3317SOL     OW10085   4.952   1.327   4.168
 3317SOL    HW110086   5.032   1.357   4.211
 3317SOL    HW210087   4.974   1.240   4.134
 3318SOL     OW10088   4.321   0.854   4.752
 3318SOL    HW110089   4.338   0.913   4.826
 3318SOL    HW210090   4.232   0.875   4.724
 3319SOL     OW10091   0.032   0.863   4.757
 3319SOL    HW110092   0.106   0.886   4.813
 3319SOL    HW210093   0.068   0.863   4.669
 3320SOL     OW10094   4.940   0.482   3.947
 3320SOL    HW110095   5.010   0.545   3.960
 3320SOL    HW210096   4.961   0.410   4.006
 3321SOL     OW10097   3.982   0.214   0.026
 3321SOL    HW110098   3.963   0.299   0.066
 3321SOL    HW210099   3.990   0.233  -0.068
 3322SOL     OW10100   3.727   1.293   4.922
 3322SOL    HW110101   3.635   1.267   4.935
 3322SOL    HW210102   3.772   1.262   5.001
 3323SOL     OW10103   4.483   0.630   4.744
 3323SOL    HW110104   4.435   0.711   4.756
 3323SOL    HW210105   4.420   0.570   4.704
 3324SOL     OW10106   4.006   0.051   4.374
 3324SOL    HW110107   4.096   0.058   4.342
 3324SOL    HW210108   3.983   0.140   4.401
 3325SOL     OW10109   4.772   0.817   4.711
 3325SOL    HW110110   4.859   0.842   4.741
 3325SOL    HW210111   4.787   0.771   4.629
 3326SOL     OW10112   0.301   0.261   3.908
 3326SOL    HW110113   0.342   0.344   3.933
 3326SOL    HW210114   0.313   0.256   3.813
 3327SOL     OW10115   4.796   1.309   4.541
 3327SOL    HW110116   4.758   1.324   4.627
 3327SOL    HW210117   4.850   1.387   4.525
 3328SOL     OW10118   4.015   0.808   4.670
 3328SOL    HW110119   4.006   0.748   4.744
 3328SOL    HW210120   4.052   0.754   4.600
 3329SOL     OW10121   4.062   0.527   4.747
 3329SOL    HW110122   3.967   0.536   4.733
 3329SOL    HW210123   4.075   0.435   4.770
 3330SOL     OW10124   3.704   1.283   3.954
 3330SOL    HW110125   3.789   1.315   3.987
 3330SOL    HW210126   3.650   1.274   4.033
 3331SOL     OW10127   3.851   1.788   4.637
 3331SOL    HW110128   3.798   1.768   4.714
 3331SOL    HW210129   3.816   1.870   4.603
 3332SOL     OW10130   4.262   1.546   4.613
 3332SOL    HW110131   4.221   1.502   4.687
 3332SOL    HW210132   4.210   1.624   4.599
 3333SOL     OW10133   4.722   0.808   4.979
 3333SOL    HW110134   4.646   0.863   5.001
 3333SOL    HW210135   4.723   0.806   4.883
 3334SOL     OW10136   3.788   0.537   4.797
 3334SOL    HW110137   3.696   0.564   4.801
 3334SOL    HW210138   3.808   0.507   4.885
 3335SOL     OW10139   4.585   0.618   3.991
 3335SOL    HW110140   4.492   0.640   3.999
 3335SOL    HW210141   4.585   0.523   3.973
 3336SOL     OW10142   4.366   0.363   0.012
 3336SOL    HW110143   4.442   0.372   0.069
 3336SOL    HW210144   4.299   0.417   0.054
 3337SOL     OW10145   4.210   0.478   3.870
 3337SOL    HW110146   4.257   0.548   3.916
 3337SOL    HW210147   4.123   0.515   3.853
 3338SOL     OW10148   3.838   1.175   0.164
 3338SOL    HW110149   3.912   1.183   0.225
 3338SOL    HW210150   3.865   1.105   0.104
 3339SOL     OW10151   4.923   1.690   4.775
 3339SOL    HW110152   4.884   1.738   4.848
 3339SOL    HW210153   4.983   1.752   4.735
 3340SOL     OW10154   3.847   1.316   4.682
 3340SOL    HW110155   3.799   1.313   4.764
 3340SOL    HW210156   3.873   1.226   4.665
 3341SOL     OW10157   4.427   1.610   3.852
 3341SOL    HW110158   4.424   1.648   3.764
 3341SOL    HW210159   4.384   1.525   3.843
 3342SOL     OW10160   4.559   1.020   0.062
 3342SOL    HW110161   4.588   0.994   0.149
 3342SOL    HW210162   4.577   1.114   0.058
 3343SOL     OW10163   4.682   0.890   3.999
 3343SOL    HW110164   4.716   0.858   4.082
 3343SOL    HW210165   4.640   0.814   3.958
 3344SOL     OW10166   4.760   1.080   4.408
 3344SOL    HW110167   4.692   1.036   4.459
 3344SOL    HW210168   4.768   1.167   4.448
 3345SOL     OW10169   4.722   0.228   4.736
 3345SOL    HW110170   4.714   0.321   4.717
 3345SOL    HW210171   4.726   0.186   4.650
 3346SOL     OW10172   4.343   1.527   4.185
 3346SOL    HW110173   4.285   1.589   4.141
 3346SOL    HW210174   4.285   1.460   4.222
 3347SOL     OW10175   3.977   1.294   4.060
 3347SOL    HW110176   4.047   1.311   3.997
 3347SOL    HW210177   3.996   1.352   4.134
 3348SOL     OW10178   3.796   0.307   3.765
 3348SOL    HW110179   3.794   0.383   3.823
 3348SOL    HW210180   3.746   0.333   3.688
 3349SOL     OW10181   3.812   0.205   4.100
 3349SOL    HW110182   3.908   0.210   4.096
 3349SOL    HW210183   3.789   0.147   4.027
 3350SOL     OW10184   4.257   0.750   4.416
 3350SOL    HW110185   4.311   0.716   4.487
 3350SOL    HW210186   4.301   0.829   4.387
 3351SOL     OW10187   4.556   1.358   3.723
 3351SOL    HW110188   4.550   1.359   3.819
 3351SOL    HW210189   4.619   1.289   3.703
 3352SOL     OW10190   4.406   1.806   4.733
 3352SOL    HW110191   4.369   1.884   4.693
 3352SOL    HW210192   4.361   1.733   4.692
 3353SOL     OW10193   4.580   0.981   4.606
 3353SOL    HW110194   4.644   0.926   4.650
 3353SOL    HW210195   4.516   0.919   4.571
 3354SOL     OW10196   4.859   1.012   3.815
 3354SOL    HW110197   4.803   0.961   3.874
 3354SOL    HW210198   4.798   1.056   3.756
 3355SOL     OW10199   3.806   1.184   4.362
 3355SOL    HW110200   3.832   1.234   4.438
 3355SOL    HW210201   3.711   1.175   4.370
 3356SOL     OW10202   4.153   0.423   4.208
 3356SOL    HW110203   4.096   0.405   4.283
 3356SOL    HW210204   4.170   0.517   4.213
 3357SOL     OW10205   4.499   1.537   4.425
 3357SOL    HW110206   4.441   1.586   4.482
 3357SOL    HW210207   4.460   1.546   4.338
 3358SOL     OW10208   4.730   0.002   4.882
 3358SOL    HW110209   4.721   0.087   4.839
 3358SOL    HW210210   4.810  -0.035   4.844
 3359SOL     OW10211   4.523   1.351   3.998
 3359SOL    HW110212   4.582   1.348   4.074
 3359SOL    HW210213   4.437   1.367   4.036
 3360SOL     OW10214   3.802   1.031   4.022
 3360SOL    HW110215   3.841   1.077   4.096
 3360SOL    HW210216   3.759   1.100   3.971
 3361SOL     OW10217   3.985   2.509   0.135
 3361SOL    HW110218   3.892   2.485   0.142
 3361SOL    HW210219   3.993   2.590   0.184
 3362SOL     OW10220   3.939   2.112   0.997
 3362SOL    HW110221   3.872   2.176   1.022
 3362SOL    HW210222   3.889   2.037   0.963
 3363SOL     OW10223   3.726   2.241   0.688
 3363SOL    HW110224   3.762   2.324   0.655
 3363SOL    HW210225   3.701   2.193   0.610
 3364SOL     OW10226   4.282   3.149   1.171
 3364SOL    HW110227   4.363   3.100   1.159
 3364SOL    HW210228   4.251   3.123   1.258
 3365SOL     OW10229   4.819   2.539   0.727
 3365SOL    HW110230   4.859   2.605   0.784
 3365SOL    HW210231   4.826   2.576   0.639
 3366SOL     OW10232   4.531   2.963   1.082
 3366SOL    HW110233   4.620   2.994   1.096
 3366SOL    HW210234   4.533   2.922   0.996
 3367SOL     OW10235   4.542   2.652   1.841
 3367SOL    HW110236   4.469   2.708   1.867
 3367SOL    HW210237   4.570   2.687   1.756
 3368SOL     OW10238   4.398   2.889   0.627
 3368SOL    HW110239   4.310   2.921   0.647
 3368SOL    HW210240   4.389   2.794   0.619
 3369SOL     OW10241   4.460   3.020   1.772
 3369SOL    HW110242   4.413   3.101   1.753
 3369SOL    HW210243   4.423   2.955   1.711
 3370SOL     OW10244   4.035   3.268   1.063
 3370SOL    HW110245   4.125   3.237   1.064
 3370SOL    HW210246   4.041   3.356   1.025
 3371SOL     OW10247   4.126   2.311   1.551
 3371SOL    HW110248   4.185   2.237   1.537
 3371SOL    HW210249   4.095   2.333   1.463
 3372SOL     OW10250   3.956   3.570   0.484
 3372SOL    HW110251   4.043   3.573   0.444
 3372SOL    HW210252   3.940   3.477   0.499
 3373SOL     OW10253   4.856   3.177   1.704
 3373SOL    HW110254   4.873   3.199   1.795
 3373SOL    HW210255   4.879   3.257   1.655
 3374SOL     OW10256   3.958   3.306   0.543
 3374SOL    HW110257   4.006   3.323   0.624
 3374SOL    HW210258   3.906   3.228   0.563
 3375SOL     OW10259   3.926   2.941   0.835
 3375SOL    HW110260   3.899   2.978   0.920
 3375SOL    HW210261   3.884   2.855   0.833
 3376SOL     OW10262   4.386   3.675   1.464
 3376SOL    HW110263   4.428   3.603   1.417
 3376SOL    HW210264   4.293   3.653   1.464
 3377SOL     OW10265   4.286   2.843   0.055
 3377SOL    HW110266   4.335   2.865   0.134
 3377SOL    HW210267   4.263   2.928   0.017
 3378SOL     OW10268   3.854   2.465   0.605
 3378SOL    HW110269   3.939   2.428   0.582
 3378SOL    HW210270   3.836   2.530   0.537
 3379SOL     OW10271   3.757   3.448   0.112
 3379SOL    HW110272   3.692   3.492   0.166
 3379SOL    HW210273   3.806   3.519   0.070
 3380SOL     OW10274   3.782   2.639   1.610
 3380SOL    HW110275   3.808   2.572   1.673
 3380SOL    HW210276   3.787   2.595   1.525
 3381SOL     OW10277   4.309   3.213   0.727
 3381SOL    HW110278   4.306   3.270   0.650
 3381SOL    HW210279   4.389   3.161   0.716
 3382SOL     OW10280   4.547   1.865   0.571
 3382SOL    HW110281   4.542   1.777   0.607
 3382SOL    HW210282   4.456   1.894   0.563
 3383SOL     OW10283   3.889   2.831   1.255
 3383SOL    HW110284   3.961   2.767   1.254
 3383SOL    HW210285   3.902   2.883   1.176
 3384SOL     OW10286   4.050   2.092   1.795
 3384SOL    HW110287   4.105   2.170   1.786
 3384SOL    HW210288   3.999   2.088   1.714
 3385SOL     OW10289   4.342   2.625   0.275
 3385SOL    HW110290   4.277   2.605   0.343
 3385SOL    HW210291   4.292   2.666   0.205
 3386SOL     OW10292   4.498   2.448   1.450
 3386SOL    HW110293   4.477   2.430   1.542
 3386SOL    HW210294   4.593   2.444   1.445
 3387SOL     OW10295   4.644   2.741   1.587
 3387SOL    HW110296   4.694   2.807   1.634
 3387SOL    HW210297   4.706   2.669   1.574
 3388SOL     OW10298   4.714   2.334   1.255
 3388SOL    HW110299   4.797   2.288   1.268
 3388SOL    HW210300   4.649   2.265   1.248
 3389SOL     OW10301   4.821   2.599   0.450
 3389SOL    HW110302   4.732   2.565   0.451
 3389SOL    HW210303   4.865   2.551   0.379
 3390SOL     OW10304   3.793   2.697   0.815
 3390SOL    HW110305   3.873   2.668   0.858
 3390SOL    HW210306   3.781   2.635   0.743
 3391SOL     OW10307   3.854   3.714   1.557
 3391SOL    HW110308   3.774   3.692   1.606
 3391SOL    HW210309   3.845   3.808   1.539
 3392SOL     OW10310   4.530   2.230   0.204
 3392SOL    HW110311   4.470   2.221   0.278
 3392SOL    HW210312   4.566   2.143   0.190
 3393SOL     OW10313   4.291   2.062   0.845
 3393SOL    HW110314   4.284   2.080   0.751
 3393SOL    HW210315   4.352   1.989   0.850
 3394SOL     OW10316   4.668   3.274   0.493
 3394SOL    HW110317   4.762   3.285   0.512
 3394SOL    HW210318   4.624   3.324   0.561
 3395SOL     OW10319   4.128   3.643   0.821
 3395SOL    HW110320   4.177   3.700   0.880
 3395SOL    HW210321   4.073   3.703   0.771
 3396SOL     OW10322   4.930   3.428   1.616
 3396SOL    HW110323   5.012   3.442   1.663
 3396SOL    HW210324   4.954   3.433   1.524
 3397SOL     OW10325   4.033   2.753   0.249
 3397SOL    HW110326   4.082   2.796   0.319
 3397SOL    HW210327   3.982   2.824   0.209
 3398SOL     OW10328   4.162   3.014   1.734
 3398SOL    HW110329   4.106   3.069   1.789
 3398SOL    HW210330   4.160   3.056   1.648
 3399SOL     OW10331   4.823   3.682   0.250
 3399SOL    HW110332   4.748   3.675   0.191
 3399SOL    HW210333   4.880   3.610   0.224
 3400SOL     OW10334   3.899   2.087   1.564
 3400SOL    HW110335   3.929   2.106   1.475
 3400SOL    HW210336   3.817   2.135   1.573
 3401SOL     OW10337   4.197   3.600   0.358
 3401SOL    HW110338   4.252   3.561   0.290
 3401SOL    HW210339   4.159   3.677   0.316
 3402SOL     OW10340   3.990   3.616   1.166
 3402SOL    HW110341   4.051   3.668   1.218
 3402SOL    HW210342   3.935   3.571   1.230
 3403SOL     OW10343   4.606   3.631   0.887
 3403SOL    HW110344   4.652   3.632   0.970
 3403SOL    HW210345   4.664   3.677   0.826
 3404SOL     OW10346   4.154   2.584   0.474
 3404SOL    HW110347   4.068   2.621   0.456
 3404SOL    HW210348   4.138   2.490   0.480
 3405SOL     OW10349   4.304   1.994   0.093
 3405SOL    HW110350   4.233   2.046   0.056
 3405SOL    HW210351   4.313   1.919   0.033
 3406SOL     OW10352   4.470   2.143   1.775
 3406SOL    HW110353   4.550   2.105   1.740
 3406SOL    HW210354   4.472   2.235   1.747
 3407SOL     OW10355   4.630   3.408   1.143
 3407SOL    HW110356   4.673   3.357   1.211
 3407SOL    HW210357   4.629   3.497   1.177
 3408SOL     OW10358   4.545   3.267   0.928
 3408SOL    HW110359   4.572   3.325   0.999
 3408SOL    HW210360   4.475   3.214   0.965
 3409SOL     OW10361   4.687   2.345   0.870
 3409SOL    HW110362   4.643   2.390   0.941
 3409SOL    HW210363   4.736   2.413   0.824
 3410SOL     OW10364   4.275   1.938   0.534
 3410SOL    HW110365   4.275   2.011   0.473
 3410SOL    HW210366   4.256   1.861   0.479
 3411SOL     OW10367   4.025   1.879   0.219
 3411SOL    HW110368   4.041   1.958   0.168
 3411SOL    HW210369   3.991   1.815   0.156
 3412SOL     OW10370   4.661   2.136   0.509
 3412SOL    HW110371   4.753   2.135   0.535
 3412SOL    HW210372   4.636   2.044   0.503
 3413SOL     OW10373   4.794   2.518   1.506
 3413SOL    HW110374   4.884   2.485   1.504
 3413SOL    HW210375   4.782   2.561   1.421
 3414SOL     OW10376   4.966   3.387   0.803
 3414SOL    HW110377   5.051   3.343   0.809
 3414SOL    HW210378   4.955   3.405   0.709
 3415SOL     OW10379   4.156   2.986   0.702
 3415SOL    HW110380   4.076   2.977   0.753
 3415SOL    HW210381   4.190   3.073   0.726
 3416SOL     OW10382   4.976   3.601   0.588
 3416SOL    HW110383   4.891   3.641   0.603
 3416SOL    HW210384   4.996   3.621   0.497
 3417SOL     OW10385   4.773   2.392   5.005
 3417SOL    HW110386   4.830   2.422   4.934
 3417SOL    HW210387   4.768   2.298   4.993
 3418SOL     OW10388   3.786   2.482   1.390
 3418SOL    HW110389   3.869   2.443   1.361
 3418SOL    HW210390   3.723   2.410   1.383
 3419SOL     OW10391   4.322   2.032   1.118
 3419SOL    HW110392   4.347   2.107   1.172
 3419SOL    HW210393   4.302   2.070   1.032
 3420SOL     OW10394   4.499   2.304   0.672
 3420SOL    HW110395   4.570   2.310   0.735
 3420SOL    HW210396   4.536   2.255   0.598
 3421SOL     OW10397   4.738   1.921   0.773
 3421SOL    HW110398   4.654   1.916   0.727
 3421SOL    HW210399   4.803   1.902   0.705
 3422SOL     OW10400   4.244   3.232   0.145
 3422SOL    HW110401   4.159   3.234   0.189
 3422SOL    HW210402   4.304   3.195   0.210
 3423SOL     OW10403   4.268   2.123   0.335
 3423SOL    HW110404   4.236   2.203   0.294
 3423SOL    HW210405   4.288   2.065   0.261
 3424SOL     OW10406   4.750   3.288   1.358
 3424SOL    HW110407   4.831   3.239   1.347
 3424SOL    HW210408   4.689   3.226   1.398
 3425SOL     OW10409   4.793   3.030   1.107
 3425SOL    HW110410   4.847   3.069   1.175
 3425SOL    HW210411   4.814   3.081   1.028
 3426SOL     OW10412   4.673   1.939   1.435
 3426SOL    HW110413   4.658   1.962   1.527
 3426SOL    HW210414   4.637   1.851   1.426
 3427SOL     OW10415   4.726   2.944   1.749
 3427SOL    HW110416   4.636   2.976   1.758
 3427SOL    HW210417   4.776   3.020   1.718
 3428SOL     OW10418   4.416   2.931   0.303
 3428SOL    HW110419   4.356   2.917   0.377
 3428SOL    HW210420   4.485   2.866   0.317
 3429SOL     OW10421   4.121   2.670   1.244
 3429SOL    HW110422   4.175   2.685   1.166
 3429SOL    HW210423   4.182   2.670   1.317
 3430SOL     OW10424   3.841   3.478   1.354
 3430SOL    HW110425   3.798   3.540   1.414
 3430SOL    HW210426   3.775   3.410   1.339
 3431SOL     OW10427   4.127   2.937   0.433
 3431SOL    HW110428   4.128   2.946   0.528
 3431SOL    HW210429   4.090   3.019   0.401
 3432SOL     OW10430   4.327   2.412   0.876
 3432SOL    HW110431   4.400   2.419   0.937
 3432SOL    HW210432   4.358   2.355   0.806
 3433SOL     OW10433   4.953   3.273   0.531
 3433SOL    HW110434   4.965   3.189   0.574
 3433SOL    HW210435   4.959   3.254   0.438
 3434SOL     OW10436   4.070   3.343   1.325
 3434SOL    HW110437   3.992   3.395   1.344
 3434SOL    HW210438   4.057   3.310   1.236
 3435SOL     OW10439   4.144   2.599   1.633
 3435SOL    HW110440   4.200   2.629   1.562
 3435SOL    HW210441   4.117   2.511   1.607
 3436SOL     OW10442   4.690   1.967   1.721
 3436SOL    HW110443   4.780   1.998   1.728
 3436SOL    HW210444   4.683   1.898   1.787
 3437SOL     OW10445   4.291   1.912   1.705
 3437SOL    HW110446   4.302   1.948   1.793
 3437SOL    HW210447   4.307   1.985   1.647
 3438SOL     OW10448   4.298   2.706   1.032
 3438SOL    HW110449   4.361   2.778   1.025
 3438SOL    HW210450   4.334   2.637   0.977
 3439SOL     OW10451   0.042   2.761   1.051
 3439SOL    HW110452  -0.013   2.840   1.048
 3439SOL    HW210453   0.064   2.744   0.960
 3440SOL     OW10454   4.919   2.407   0.285
 3440SOL    HW110455   4.837   2.387   0.241
 3440SOL    HW210456   4.987   2.379   0.223
 3441SOL     OW10457   3.981   2.075   1.284
 3441SOL    HW110458   4.002   2.111   1.198
 3441SOL    HW210459   3.987   1.980   1.273
 3442SOL     OW10460   3.737   3.195   1.288
 3442SOL    HW110461   3.789   3.146   1.352
 3442SOL    HW210462   3.647   3.174   1.310
 3443SOL     OW10463   4.525   2.475   1.064
 3443SOL    HW110464   4.558   2.452   1.151
 3443SOL    HW210465   4.581   2.547   1.036
 3444SOL     OW10466   4.027   1.914   0.673
 3444SOL    HW110467   4.107   1.934   0.625
 3444SOL    HW210468   3.978   1.857   0.614
 3445SOL     OW10469   4.712   2.653   0.990
 3445SOL    HW110470   4.753   2.662   1.076
 3445SOL    HW210471   4.701   2.743   0.960
 3446SOL     OW10472   4.674   3.467   1.719
 3446SOL    HW110473   4.657   3.396   1.781
 3446SOL    HW210474   4.764   3.452   1.690
 3447SOL     OW10475   4.049   2.783   1.812
 3447SOL    HW110476   4.101   2.859   1.788
 3447SOL    HW210477   4.076   2.715   1.750
 3448SOL     OW10478   4.791   3.175   0.862
 3448SOL    HW110479   4.848   3.250   0.846
 3448SOL    HW210480   4.705   3.213   0.879
 3449SOL     OW10481   4.033   2.682   0.930
 3449SOL    HW110482   4.100   2.630   0.974
 3449SOL    HW210483   4.080   2.759   0.897
 3450SOL     OW10484   4.103   2.343   1.035
 3450SOL    HW110485   4.167   2.371   0.969
 3450SOL    HW210486   4.063   2.264   0.997
 3451SOL     OW10487   4.778   2.274   1.646
 3451SOL    HW110488   4.784   2.297   1.739
 3451SOL    HW210489   4.775   2.358   1.601
 3452SOL     OW10490   4.892   2.107   1.464
 3452SOL    HW110491   4.851   2.161   1.531
 3452SOL    HW210492   4.825   2.041   1.442
 3453SOL     OW10493   3.719   3.194   0.273
 3453SOL    HW110494   3.709   3.286   0.295
 3453SOL    HW210495   3.671   3.183   0.191
 3454SOL     OW10496   3.831   3.708   0.963
 3454SOL    HW110497   3.901   3.666   1.012
 3454SOL    HW210498   3.750   3.681   1.007
 3455SOL     OW10499   4.246   3.423   0.934
 3455SOL    HW110500   4.277   3.361   0.868
 3455SOL    HW210501   4.200   3.491   0.883
 3456SOL     OW10502   4.795   2.598   1.246
 3456SOL    HW110503   4.889   2.597   1.227
 3456SOL    HW210504   4.767   2.507   1.237
 3457SOL     OW10505   3.761   2.318   1.059
 3457SOL    HW110506   3.685   2.366   1.093
 3457SOL    HW210507   3.827   2.386   1.045
 3458SOL     OW10508   3.887   2.401   1.726
 3458SOL    HW110509   3.851   2.337   1.788
 3458SOL    HW210510   3.950   2.351   1.673
 3459SOL     OW10511   4.583   2.498   0.273
 3459SOL    HW110512   4.493   2.530   0.274
 3459SOL    HW210513   4.577   2.408   0.241
 3460SOL     OW10514   3.978   3.423   1.753
 3460SOL    HW110515   4.068   3.445   1.778
 3460SOL    HW210516   3.926   3.496   1.788
 3461SOL     OW10517   4.403   2.272   1.260
 3461SOL    HW110518   4.426   2.334   1.329
 3461SOL    HW210519   4.377   2.326   1.186
 3462SOL     OW10520   4.641   3.528   1.438
 3462SOL    HW110521   4.652   3.523   1.533
 3462SOL    HW210522   4.679   3.447   1.405
 3463SOL     OW10523   4.190   2.338   0.200
 3463SOL    HW110524   4.111   2.388   0.177
 3463SOL    HW210525   4.249   2.351   0.126
 3464SOL     OW10526   3.879   3.017   1.459
 3464SOL    HW110527   3.854   2.977   1.542
 3464SOL    HW210528   3.880   2.944   1.397
 3465SOL     OW10529   4.980   3.612   1.093
 3465SOL    HW110530   4.896   3.654   1.113
 3465SOL    HW210531   4.960   3.519   1.082
 3466SOL     OW10532   3.842   3.069   1.059
 3466SOL    HW110533   3.907   3.138   1.050
 3466SOL    HW210534   3.787   3.097   1.132
 3467SOL     OW10535   4.409   3.532   1.708
 3467SOL    HW110536   4.503   3.516   1.718
 3467SOL    HW210537   4.402   3.590   1.632
 3468SOL     OW10538   4.616   1.970   0.196
 3468SOL    HW110539   4.683   1.903   0.208
 3468SOL    HW210540   4.556   1.932   0.132
 3469SOL     OW10541   3.863   3.653   1.847
 3469SOL    HW110542   3.901   3.686   1.928
 3469SOL    HW210543   3.885   3.720   1.782
 3470SOL     OW10544   4.560   3.126   1.459
 3470SOL    HW110545   4.496   3.166   1.517
 3470SOL    HW210546   4.522   3.042   1.435
 3471SOL     OW10547   4.344   3.486   0.159
 3471SOL    HW110548   4.399   3.506   0.083
 3471SOL    HW210549   4.309   3.399   0.141
 3472SOL     OW10550   4.006   2.214   0.736
 3472SOL    HW110551   4.026   2.141   0.795
 3472SOL    HW210552   3.911   2.216   0.732
 3473SOL     OW10553   4.496   2.870   1.367
 3473SOL    HW110554   4.569   2.828   1.412
 3473SOL    HW210555   4.528   2.884   1.278
 3474SOL     OW10556   4.638   2.768   0.296
 3474SOL    HW110557   4.719   2.757   0.347
 3474SOL    HW210558   4.611   2.679   0.274
 3475SOL     OW10559   4.121   3.148   1.500
 3475SOL    HW110560   4.040   3.098   1.490
 3475SOL    HW210561   4.110   3.223   1.441
 3476SOL     OW10562   4.823   2.948   0.710
 3476SOL    HW110563   4.798   3.023   0.764
 3476SOL    HW210564   4.750   2.937   0.649
 3477SOL     OW10565   4.742   2.098   0.987
 3477SOL    HW110566   4.725   2.184   0.948
 3477SOL    HW210567   4.737   2.037   0.914
 3478SOL     OW10568   4.320   3.382   0.516
 3478SOL    HW110569   4.403   3.420   0.546
 3478SOL    HW210570   4.278   3.453   0.466
 3479SOL     OW10571   4.011   3.240   0.281
 3479SOL    HW110572   3.999   3.270   0.371
 3479SOL    HW210573   3.923   3.241   0.244
 3480SOL     OW10574   3.807   2.895   1.704
 3480SOL    HW110575   3.886   2.892   1.758
 3480SOL    HW210576   3.795   2.806   1.673
 3481SOL     OW10577   4.314   2.089   1.476
 3481SOL    HW110578   4.308   2.002   1.436
 3481SOL    HW210579   4.360   2.142   1.411
 3482SOL     OW10580   3.771   2.087   0.300
 3482SOL    HW110581   3.733   2.053   0.381
 3482SOL    HW210582   3.838   2.024   0.276
 3483SOL     OW10583   4.321   2.665   1.430
 3483SOL    HW110584   4.373   2.744   1.413
 3483SOL    HW210585   4.384   2.594   1.434
 3484SOL     OW10586   4.443   2.416   1.716
 3484SOL    HW110587   4.493   2.475   1.774
 3484SOL    HW210588   4.351   2.435   1.736
 3485SOL     OW10589   4.120   3.621   1.535
 3485SOL    HW110590   4.101   3.527   1.541
 3485SOL    HW210591   4.034   3.663   1.537
 3486SOL     OW10592   4.364   2.621   0.646
 3486SOL    HW110593   4.378   2.533   0.681
 3486SOL    HW210594   4.291   2.610   0.584
 3487SOL     OW10595   4.528   3.258   0.000
 3487SOL    HW110596   4.527   3.228   0.092
 3487SOL    HW210597   4.613   3.230  -0.033
 3488SOL     OW10598   4.360   3.677   1.009
 3488SOL    HW110599   4.323   3.589   1.012
 3488SOL    HW210600   4.441   3.668   0.960
 3489SOL     OW10601   4.538   2.819   0.846
 3489SOL    HW110602   4.494   2.861   0.772
 3489SOL    HW210603   4.558   2.730   0.816
 3490SOL     OW10604   4.868   2.971   0.082
 3490SOL    HW110605   4.919   2.917   0.141
 3490SOL    HW210606   4.781   2.931   0.081
 3491SOL     OW10607   3.968   3.165   1.861
 3491SOL    HW110608   4.020   3.179   1.940
 3491SOL    HW210609   3.962   3.252   1.821
 3492SOL     OW10610   3.826   3.092   0.630
 3492SOL    HW110611   3.857   3.030   0.696
 3492SOL    HW210612   3.731   3.079   0.628
 3493SOL     OW10613   4.368   3.242   1.625
 3493SOL    HW110614   4.282   3.231   1.583
 3493SOL    HW210615   4.376   3.336   1.641
 3494SOL     OW10616   4.097   2.326   0.512
 3494SOL    HW110617   4.077   2.278   0.593
 3494SOL    HW210618   4.141   2.261   0.456
 3495SOL     OW10619   4.040   2.408   1.300
 3495SOL    HW110620   4.059   2.500   1.282
 3495SOL    HW210621   4.060   2.362   1.219
 3496SOL     OW10622   4.545   3.420   0.697
 3496SOL    HW110623   4.561   3.507   0.735
 3496SOL    HW210624   4.537   3.362   0.772
 3497SOL     OW10625   4.800   1.908   1.178
 3497SOL    HW110626   4.747   1.928   1.256
 3497SOL    HW210627   4.778   1.978   1.116
 3498SOL     OW10628   4.533   3.179   0.267
 3498SOL    HW110629   4.578   3.201   0.348
 3498SOL    HW210630   4.499   3.090   0.281
 3499SOL     OW10631   4.329   3.436   1.326
 3499SOL    HW110632   4.238   3.406   1.324
 3499SOL    HW210633   4.366   3.405   1.243
 3500SOL     OW10634   4.565   3.506   0.336
 3500SOL    HW110635   4.487   3.475   0.291
 3500SOL    HW210636   4.620   3.428   0.343
 3501SOL     OW10637   3.996   2.504   1.978
 3501SOL    HW110638   4.001   2.558   1.899
 3501SOL    HW210639   3.923   2.444   1.962
 3502SOL     OW10640   3.923   2.153   2.876
 3502SOL    HW110641   3.972   2.119   2.951
 3502SOL    HW210642   3.863   2.217   2.914
 3503SOL     OW10643   3.759   2.190   2.524
 3503SOL    HW110644   3.852   2.207   2.539
 3503SOL    HW210645   3.724   2.273   2.492
 3504SOL     OW10646   4.276   3.139   3.059
 3504SOL    HW110647   4.326   3.204   3.109
 3504SOL    HW210648   4.341   3.093   3.007
 3505SOL     OW10649   4.872   2.568   2.548
 3505SOL    HW110650   4.822   2.487   2.562
 3505SOL    HW210651   4.941   2.543   2.486
 3506SOL     OW10652   4.455   2.988   2.904
 3506SOL    HW110653   4.406   2.915   2.941
 3506SOL    HW210654   4.517   2.947   2.843
 3507SOL     OW10655   4.647   2.648   3.686
 3507SOL    HW110656   4.649   2.701   3.606
 3507SOL    HW210657   4.572   2.589   3.674
 3508SOL     OW10658   4.419   2.843   2.524
 3508SOL    HW110659   4.499   2.894   2.538
 3508SOL    HW210660   4.351   2.895   2.566
 3509SOL     OW10661   4.391   2.976   3.701
 3509SOL    HW110662   4.462   3.011   3.756
 3509SOL    HW210663   4.428   2.975   3.613
 3510SOL     OW10664   4.019   3.234   2.910
 3510SOL    HW110665   4.098   3.258   2.959
 3510SOL    HW210666   4.039   3.149   2.872
 3511SOL     OW10667   4.125   2.261   3.363
 3511SOL    HW110668   4.135   2.222   3.450
 3511SOL    HW210669   4.105   2.353   3.381
 3512SOL     OW10670   3.944   3.550   2.312
 3512SOL    HW110671   3.941   3.638   2.350
 3512SOL    HW210672   3.865   3.545   2.257
 3513SOL     OW10673   4.899   3.134   3.518
 3513SOL    HW110674   4.909   3.228   3.501
 3513SOL    HW210675   4.987   3.105   3.542
 3514SOL     OW10676   3.934   3.278   2.433
 3514SOL    HW110677   4.028   3.298   2.430
 3514SOL    HW210678   3.893   3.361   2.458
 3515SOL     OW10679   3.962   2.984   2.740
 3515SOL    HW110680   4.054   2.968   2.720
 3515SOL    HW210681   3.921   3.002   2.656
 3516SOL     OW10682   4.403   3.631   3.316
 3516SOL    HW110683   4.410   3.604   3.408
 3516SOL    HW210684   4.324   3.686   3.314
 3517SOL     OW10685   4.347   2.827   1.952
 3517SOL    HW110686   4.281   2.862   2.011
 3517SOL    HW210687   4.380   2.903   1.903
 3518SOL     OW10688   3.788   2.460   2.445
 3518SOL    HW110689   3.751   2.529   2.390
 3518SOL    HW210690   3.875   2.444   2.408
 3519SOL     OW10691   3.777   3.397   1.992
 3519SOL    HW110692   3.766   3.483   2.032
 3519SOL    HW210693   3.736   3.405   1.906
 3520SOL     OW10694   3.823   2.643   3.454
 3520SOL    HW110695   3.918   2.634   3.444
 3520SOL    HW210696   3.788   2.563   3.414
 3521SOL     OW10697   4.318   3.238   2.591
 3521SOL    HW110698   4.408   3.258   2.616
 3521SOL    HW210699   4.311   3.266   2.500
 3522SOL     OW10700   4.524   1.824   2.396
 3522SOL    HW110701   4.605   1.852   2.439
 3522SOL    HW210702   4.554   1.777   2.318
 3523SOL     OW10703   3.945   2.849   3.097
 3523SOL    HW110704   3.910   2.877   3.181
 3523SOL    HW210705   3.891   2.894   3.032
 3524SOL     OW10706   4.066   2.079   3.615
 3524SOL    HW110707   4.040   2.074   3.707
 3524SOL    HW210708   3.984   2.072   3.567
 3525SOL     OW10709   4.372   2.577   2.093
 3525SOL    HW110710   4.350   2.659   2.048
 3525SOL    HW210711   4.306   2.515   2.064
 3526SOL     OW10712   4.551   2.431   3.328
 3526SOL    HW110713   4.625   2.388   3.285
 3526SOL    HW210714   4.474   2.401   3.279
 3527SOL     OW10715   4.676   2.786   3.449
 3527SOL    HW110716   4.750   2.729   3.426
 3527SOL    HW210717   4.641   2.816   3.365
 3528SOL     OW10718   4.717   2.272   3.179
 3528SOL    HW110719   4.812   2.279   3.178
 3528SOL    HW210720   4.700   2.178   3.173
 3529SOL     OW10721   4.740   2.555   2.268
 3529SOL    HW110722   4.752   2.588   2.357
 3529SOL    HW210723   4.709   2.630   2.219
 3530SOL     OW10724   3.803   2.645   2.653
 3530SOL    HW110725   3.716   2.685   2.657
 3530SOL    HW210726   3.795   2.574   2.590
 3531SOL     OW10727   3.856   3.720   3.423
 3531SOL    HW110728   3.863   3.813   3.401
 3531SOL    HW210729   3.810   3.681   3.349
 3532SOL     OW10730   4.592   2.111   2.114
 3532SOL    HW110731   4.663   2.117   2.050
 3532SOL    HW210732   4.569   2.202   2.132
 3533SOL     OW10733   4.276   2.008   2.739
 3533SOL    HW110734   4.301   2.068   2.810
 3533SOL    HW210735   4.298   2.056   2.659
 3534SOL     OW10736   4.722   3.276   2.374
 3534SOL    HW110737   4.805   3.253   2.332
 3534SOL    HW210738   4.655   3.241   2.315
 3535SOL     OW10739   4.074   3.657   2.748
 3535SOL    HW110740   3.984   3.662   2.779
 3535SOL    HW210741   4.070   3.687   2.657
 3536SOL     OW10742   4.909   3.386   3.399
 3536SOL    HW110743   4.854   3.464   3.402
 3536SOL    HW210744   4.861   3.326   3.341
 3537SOL     OW10745   4.022   2.814   2.085
 3537SOL    HW110746   4.027   2.811   1.990
 3537SOL    HW210747   4.030   2.722   2.112
 3538SOL     OW10748   4.188   3.165   3.624
 3538SOL    HW110749   4.227   3.083   3.653
 3538SOL    HW210750   4.094   3.153   3.637
 3539SOL     OW10751   4.914   3.612   2.104
 3539SOL    HW110752   4.947   3.678   2.165
 3539SOL    HW210753   4.888   3.662   2.027
 3540SOL     OW10754   3.897   2.079   3.357
 3540SOL    HW110755   3.950   2.159   3.363
 3540SOL    HW210756   3.843   2.092   3.280
 3541SOL     OW10757   4.207   3.595   2.234
 3541SOL    HW110758   4.117   3.569   2.255
 3541SOL    HW210759   4.207   3.606   2.139
 3542SOL     OW10760   3.961   3.664   3.091
 3542SOL    HW110761   3.893   3.610   3.131
 3542SOL    HW210762   3.997   3.609   3.021
 3543SOL     OW10763   4.651   3.570   2.779
 3543SOL    HW110764   4.702   3.632   2.727
 3543SOL    HW210765   4.605   3.516   2.715
 3544SOL     OW10766   4.056   2.544   2.382
 3544SOL    HW110767   4.145   2.570   2.403
 3544SOL    HW210768   4.002   2.619   2.407
 3545SOL     OW10769   4.367   2.007   1.981
 3545SOL    HW110770   4.445   2.001   2.037
 3545SOL    HW210771   4.394   2.065   1.909
 3546SOL     OW10772   4.551   2.156   3.617
 3546SOL    HW110773   4.602   2.078   3.638
 3546SOL    HW210774   4.492   2.128   3.546
 3547SOL     OW10775   4.627   3.466   3.040
 3547SOL    HW110776   4.558   3.400   3.037
 3547SOL    HW210777   4.649   3.484   2.949
 3548SOL     OW10778   4.521   3.248   2.816
 3548SOL    HW110779   4.446   3.308   2.824
 3548SOL    HW210780   4.488   3.164   2.848
 3549SOL     OW10781   4.674   2.371   2.765
 3549SOL    HW110782   4.599   2.398   2.818
 3549SOL    HW210783   4.638   2.361   2.676
 3550SOL     OW10784   4.305   1.991   2.433
 3550SOL    HW110785   4.387   1.943   2.422
 3550SOL    HW210786   4.239   1.922   2.446
 3551SOL     OW10787   4.068   1.930   2.007
 3551SOL    HW110788   4.136   1.869   1.980
 3551SOL    HW210789   4.059   1.990   1.932
 3552SOL     OW10790   4.670   2.133   2.383
 3552SOL    HW110791   4.696   2.053   2.428
 3552SOL    HW210792   4.646   2.105   2.295
 3553SOL     OW10793   4.848   2.579   3.369
 3553SOL    HW110794   4.791   2.509   3.400
 3553SOL    HW210795   4.822   2.594   3.278
 3554SOL     OW10796   4.978   3.442   2.651
 3554SOL    HW110797   4.893   3.408   2.679
 3554SOL    HW210798   5.034   3.365   2.643
 3555SOL     OW10799   4.208   2.991   2.616
 3555SOL    HW110800   4.242   3.080   2.617
 3555SOL    HW210801   4.169   2.982   2.529
 3556SOL     OW10802   5.018   3.652   2.466
 3556SOL    HW110803   5.007   3.572   2.517
 3556SOL    HW210804   4.947   3.709   2.495
 3557SOL     OW10805   4.769   2.404   1.891
 3557SOL    HW110806   4.831   2.400   1.963
 3557SOL    HW210807   4.725   2.488   1.902
 3558SOL     OW10808   3.808   2.410   3.301
 3558SOL    HW110809   3.878   2.413   3.236
 3558SOL    HW210810   3.731   2.381   3.252
 3559SOL     OW10811   4.298   2.162   2.971
 3559SOL    HW110812   4.247   2.098   3.022
 3559SOL    HW210813   4.234   2.226   2.940
 3560SOL     OW10814   4.565   2.344   2.520
 3560SOL    HW110815   4.476   2.314   2.539
 3560SOL    HW210816   4.602   2.274   2.465
 3561SOL     OW10817   4.744   1.915   2.535
 3561SOL    HW110818   4.751   1.974   2.610
 3561SOL    HW210819   4.831   1.875   2.528
 3562SOL     OW10820   4.205   3.217   2.025
 3562SOL    HW110821   4.262   3.294   2.020
 3562SOL    HW210822   4.139   3.240   2.090
 3563SOL     OW10823   4.778   3.196   3.250
 3563SOL    HW110824   4.820   3.127   3.300
 3563SOL    HW210825   4.788   3.170   3.158
 3564SOL     OW10826   4.793   3.109   2.992
 3564SOL    HW110827   4.713   3.090   2.943
 3564SOL    HW210828   4.857   3.134   2.925
 3565SOL     OW10829   4.622   1.979   3.198
 3565SOL    HW110830   4.588   2.021   3.276
 3565SOL    HW210831   4.638   1.888   3.224
 3566SOL     OW10832   4.659   3.027   3.585
 3566SOL    HW110833   4.744   3.067   3.565
 3566SOL    HW210834   4.664   2.940   3.544
 3567SOL     OW10835   4.454   2.915   2.239
 3567SOL    HW110836   4.517   2.951   2.302
 3567SOL    HW210837   4.385   2.876   2.293
 3568SOL     OW10838   4.151   2.674   3.115
 3568SOL    HW110839   4.209   2.698   3.187
 3568SOL    HW210840   4.081   2.740   3.117
 3569SOL     OW10841   3.830   3.468   3.254
 3569SOL    HW110842   3.924   3.452   3.268
 3569SOL    HW210843   3.797   3.385   3.220
 3570SOL     OW10844   4.094   2.974   2.370
 3570SOL    HW110845   4.003   2.984   2.400
 3570SOL    HW210846   4.088   2.976   2.275
 3571SOL     OW10847   4.311   2.300   2.648
 3571SOL    HW110848   4.335   2.356   2.722
 3571SOL    HW210849   4.217   2.289   2.656
 3572SOL     OW10850   4.959   3.196   2.246
 3572SOL    HW110851   5.040   3.246   2.251
 3572SOL    HW210852   4.986   3.105   2.238
 3573SOL     OW10853   4.098   3.399   3.282
 3573SOL    HW110854   4.186   3.405   3.244
 3573SOL    HW210855   4.075   3.307   3.273
 3574SOL     OW10856   4.095   2.565   3.447
 3574SOL    HW110857   4.104   2.619   3.526
 3574SOL    HW210858   4.167   2.592   3.391
 3575SOL     OW10859   4.726   1.939   3.628
 3575SOL    HW110860   4.813   1.914   3.661
 3575SOL    HW210861   4.701   1.867   3.571
 3576SOL     OW10862   4.305   1.927   3.613
 3576SOL    HW110863   4.214   1.952   3.625
 3576SOL    HW210864   4.333   1.975   3.535
 3577SOL     OW10865   4.306   2.708   2.891
 3577SOL    HW110866   4.250   2.692   2.966
 3577SOL    HW210867   4.247   2.710   2.816
 3578SOL     OW10868   0.100   2.678   2.933
 3578SOL    HW110869   0.074   2.704   2.845
 3578SOL    HW210870   0.074   2.586   2.940
 3579SOL     OW10871   4.941   2.421   2.134
 3579SOL    HW110872   4.998   2.402   2.209
 3579SOL    HW210873   4.865   2.465   2.172
 3580SOL     OW10874   4.067   2.110   3.116
 3580SOL    HW110875   4.039   2.026   3.153
 3580SOL    HW210876   4.074   2.168   3.192
 3581SOL     OW10877   3.794   3.211   3.174
 3581SOL    HW110878   3.885   3.184   3.182
 3581SOL    HW210879   3.772   3.193   3.082
 3582SOL     OW10880   4.459   2.477   2.902
 3582SOL    HW110881   4.450   2.450   2.993
 3582SOL    HW210882   4.415   2.561   2.896
 3583SOL     OW10883   3.991   1.943   2.479
 3583SOL    HW110884   3.945   1.902   2.552
 3583SOL    HW210885   3.983   1.880   2.408
 3584SOL     OW10886   4.780   2.619   2.822
 3584SOL    HW110887   4.836   2.630   2.746
 3584SOL    HW210888   4.753   2.527   2.819
 3585SOL     OW10889   4.684   3.457   3.633
 3585SOL    HW110890   4.760   3.514   3.649
 3585SOL    HW210891   4.614   3.518   3.612
 3586SOL     OW10892   4.103   2.746   3.651
 3586SOL    HW110893   4.157   2.758   3.729
 3586SOL    HW210894   4.023   2.795   3.669
 3587SOL     OW10895   0.257   2.137   2.042
 3587SOL    HW110896   0.342   2.119   2.083
 3587SOL    HW210897   0.275   2.135   1.948
 3588SOL     OW10898   4.754   3.224   2.647
 3588SOL    HW110899   4.678   3.245   2.701
 3588SOL    HW210900   4.732   3.256   2.560
 3589SOL     OW10901   4.020   2.635   2.820
 3589SOL    HW110902   3.997   2.701   2.885
 3589SOL    HW210903   3.950   2.641   2.754
 3590SOL     OW10904   4.109   2.376   2.866
 3590SOL    HW110905   4.090   2.467   2.843
 3590SOL    HW210906   4.040   2.325   2.823
 3591SOL     OW10907   4.841   2.229   3.558
 3591SOL    HW110908   4.843   2.313   3.604
 3591SOL    HW210909   4.751   2.198   3.570
 3592SOL     OW10910   4.897   2.096   3.319
 3592SOL    HW110911   4.992   2.085   3.323
 3592SOL    HW210912   4.875   2.145   3.398
 3593SOL     OW10913   3.734   3.116   2.016
 3593SOL    HW110914   3.760   3.200   2.053
 3593SOL    HW210915   3.793   3.103   1.942
 3594SOL     OW10916   3.796   3.671   2.778
 3594SOL    HW110917   3.730   3.659   2.847
 3594SOL    HW210918   3.746   3.703   2.702
 3595SOL     OW10919   4.277   3.411   2.815
 3595SOL    HW110920   4.219   3.486   2.804
 3595SOL    HW210921   4.254   3.352   2.744
 3596SOL     OW10922   4.756   2.644   3.123
 3596SOL    HW110923   4.703   2.723   3.112
 3596SOL    HW210924   4.774   2.614   3.034
 3597SOL     OW10925   3.771   2.346   2.993
 3597SOL    HW110926   3.837   2.410   3.019
 3597SOL    HW210927   3.688   2.392   3.003
 3598SOL     OW10928   3.920   2.365   3.580
 3598SOL    HW110929   3.917   2.413   3.662
 3598SOL    HW210930   3.954   2.428   3.517
 3599SOL     OW10931   4.549   2.374   2.166
 3599SOL    HW110932   4.617   2.420   2.216
 3599SOL    HW210933   4.488   2.443   2.139
 3600SOL     OW10934   3.985   3.455   3.627
 3600SOL    HW110935   3.909   3.409   3.593
 3600SOL    HW210936   4.055   3.439   3.563
 3601SOL     OW10937   4.349   2.347   3.172
 3601SOL    HW110938   4.262   2.331   3.208
 3601SOL    HW210939   4.358   2.282   3.102
 3602SOL     OW10940   4.692   3.528   3.299
 3602SOL    HW110941   4.682   3.508   3.206
 3602SOL    HW210942   4.635   3.465   3.343
 3603SOL     OW10943   4.198   2.347   2.074
 3603SOL    HW110944   4.190   2.354   2.169
 3603SOL    HW210945   4.123   2.396   2.040
 3604SOL     OW10946   3.873   2.963   3.340
 3604SOL    HW110947   3.868   2.934   3.431
 3604SOL    HW210948   3.803   3.028   3.332
 3605SOL     OW10949  -0.016   3.628   3.037
 3605SOL    HW110950   0.064   3.667   3.071
 3605SOL    HW210951  -0.008   3.635   2.942
 3606SOL     OW10952   3.746   3.174   2.907
 3606SOL    HW110953   3.728   3.099   2.851
 3606SOL    HW210954   3.836   3.199   2.886
 3607SOL     OW10955   4.419   3.543   3.573
 3607SOL    HW110956   4.397   3.543   3.667
 3607SOL    HW210957   4.407   3.451   3.547
 3608SOL     OW10958   3.870   3.684   3.704
 3608SOL    HW110959   3.845   3.716   3.617
 3608SOL    HW210960   3.926   3.609   3.687
 3609SOL     OW10961   4.507   3.139   3.276
 3609SOL    HW110962   4.597   3.173   3.267
 3609SOL    HW210963   4.469   3.189   3.348
 3610SOL     OW10964   4.367   3.440   2.009
 3610SOL    HW110965   4.438   3.468   2.066
 3610SOL    HW210966   4.386   3.480   1.924
 3611SOL     OW10967   4.038   2.186   2.614
 3611SOL    HW110968   4.010   2.153   2.700
 3611SOL    HW210969   4.042   2.107   2.560
 3612SOL     OW10970   4.553   2.871   3.221
 3612SOL    HW110971   4.465   2.833   3.226
 3612SOL    HW210972   4.538   2.966   3.228
 3613SOL     OW10973   4.636   2.750   2.103
 3613SOL    HW110974   4.567   2.804   2.143
 3613SOL    HW210975   4.591   2.702   2.034
 3614SOL     OW10976   4.054   3.141   3.222
 3614SOL    HW110977   4.130   3.118   3.168
 3614SOL    HW210978   4.031   3.060   3.267
 3615SOL     OW10979   4.691   2.957   2.537
 3615SOL    HW110980   4.741   3.035   2.562
 3615SOL    HW210981   4.689   2.903   2.616
 3616SOL     OW10982   4.769   2.095   2.742
 3616SOL    HW110983   4.746   2.042   2.819
 3616SOL    HW210984   4.745   2.184   2.766
 3617SOL     OW10985   4.323   3.337   2.340
 3617SOL    HW110986   4.310   3.421   2.295
 3617SOL    HW210987   4.390   3.292   2.287
 3618SOL     OW10988   3.965   3.268   2.150
 3618SOL    HW110989   3.941   3.276   2.242
 3618SOL    HW210990   3.908   3.329   2.104
 3619SOL     OW10991   3.830   2.870   3.608
 3619SOL    HW110992   3.749   2.869   3.659
 3619SOL    HW210993   3.829   2.787   3.561
 3620SOL     OW10994   4.402   2.058   3.390
 3620SOL    HW110995   4.368   2.121   3.327
 3620SOL    HW210996   4.387   1.972   3.349
 3621SOL     OW10997   3.796   2.238   1.929
 3621SOL    HW110998   3.835   2.186   1.999
 3621SOL    HW210999   3.704   2.214   1.929
 3622SOL     OW11000   3.815   2.109   2.182
 3622SOL    HW111001   3.824   2.078   2.272
 3622SOL    HW211002   3.737   2.163   2.182
 3623SOL     OW11003   4.353   2.670   3.310
 3623SOL    HW111004   4.391   2.682   3.396
 3623SOL    HW211005   4.406   2.602   3.268
 3624SOL     OW11006   4.464   2.459   3.589
 3624SOL    HW111007   4.467   2.371   3.628
 3624SOL    HW211008   4.496   2.447   3.500
 3625SOL     OW11009   4.123   3.642   3.405
 3625SOL    HW111010   4.033   3.671   3.419
 3625SOL    HW211011   4.114   3.559   3.359
 3626SOL     OW11012   4.308   2.606   2.449
 3626SOL    HW111013   4.347   2.689   2.477
 3626SOL    HW211014   4.383   2.551   2.426
 3627SOL     OW11015   4.619   3.252   1.896
 3627SOL    HW111016   4.699   3.217   1.934
 3627SOL    HW211017   4.575   3.175   1.859
 3628SOL     OW11018   4.450   3.722   2.909
 3628SOL    HW111019   4.512   3.669   2.859
 3628SOL    HW211020   4.402   3.772   2.843
 3629SOL     OW11021   4.602   2.812   2.754
 3629SOL    HW111022   4.665   2.749   2.789
 3629SOL    HW211023   4.532   2.759   2.717
 3630SOL     OW11024   4.852   2.882   1.989
 3630SOL    HW111025   4.784   2.833   2.036
 3630SOL    HW211026   4.819   2.888   1.899
 3631SOL     OW11027   3.931   3.114   3.691
 3631SOL    HW111028   3.864   3.151   3.747
 3631SOL    HW211029   3.894   3.031   3.660
 3632SOL     OW11030   3.847   3.025   2.493
 3632SOL    HW111031   3.860   3.118   2.476
 3632SOL    HW211032   3.789   2.996   2.422
 3633SOL     OW11033   4.409   3.273   3.508
 3633SOL    HW111034   4.464   3.255   3.584
 3633SOL    HW211035   4.322   3.242   3.533
 3634SOL     OW11036   4.158   2.294   2.347
 3634SOL    HW111037   4.185   2.267   2.435
 3634SOL    HW211038   4.118   2.380   2.360
 3635SOL     OW11039   4.021   2.433   3.121
 3635SOL    HW111040   4.065   2.518   3.129
 3635SOL    HW211041   4.058   2.394   3.041
 3636SOL     OW11042   4.502   3.460   2.583
 3636SOL    HW111043   4.409   3.481   2.589
 3636SOL    HW211044   4.531   3.503   2.502
 3637SOL     OW11045   4.704   1.909   2.941
 3637SOL    HW111046   4.675   1.939   3.028
 3637SOL    HW211047   4.786   1.863   2.957
 3638SOL     OW11048   4.511   3.197   2.182
 3638SOL    HW111049   4.511   3.245   2.100
 3638SOL    HW211050   4.470   3.113   2.161
 3639SOL     OW11051   4.343   3.416   3.148
 3639SOL    HW111052   4.382   3.484   3.202
 3639SOL    HW211053   4.330   3.458   3.062
 3640SOL     OW11054   3.807   2.930   2.210
 3640SOL    HW111055   3.885   2.898   2.165
 3640SOL    HW211056   3.771   2.996   2.151
 3641SOL     OW11057   4.571   3.499   2.185
 3641SOL    HW111058   4.558   3.565   2.254
 3641SOL    HW211059   4.651   3.453   2.210
 3642SOL     OW11060   3.903   2.494   3.816
 3642SOL    HW111061   3.826   2.485   3.873
 3642SOL    HW211062   3.938   2.581   3.838
 3643SOL     OW11063   3.892   2.187   4.695
 3643SOL    HW111064   3.933   2.145   4.770
 3643SOL    HW211065   3.829   2.122   4.663
 3644SOL     OW11066   3.746   2.234   4.368
 3644SOL    HW111067   3.761   2.322   4.333
 3644SOL    HW211068   3.711   2.184   4.295
 3645SOL     OW11069   4.263   3.138   4.890
 3645SOL    HW111070   4.354   3.145   4.863
 3645SOL    HW211071   4.261   3.177   4.978
 3646SOL     OW11072   4.843   2.527   4.391
 3646SOL    HW111073   4.831   2.564   4.478
 3646SOL    HW211074   4.937   2.530   4.376
 3647SOL     OW11075   4.511   3.044   4.746
 3647SOL    HW111076   4.581   3.031   4.810
 3647SOL    HW211077   4.456   2.966   4.755
 3648SOL     OW11078   4.416   2.870   4.391
 3648SOL    HW111079   4.384   2.780   4.385
 3648SOL    HW211080   4.417   2.901   4.301
 3649SOL     OW11081   4.043   3.276   4.799
 3649SOL    HW111082   3.990   3.281   4.878
 3649SOL    HW211083   4.115   3.216   4.821
 3650SOL     OW11084   0.212   3.352   0.078
 3650SOL    HW111085   0.268   3.397   0.016
 3650SOL    HW211086   0.178   3.276   0.031
 3651SOL     OW11087   3.917   3.556   4.274
 3651SOL    HW111088   3.952   3.640   4.303
 3651SOL    HW211089   3.823   3.562   4.292
 3652SOL     OW11090   3.953   2.946   4.609
 3652SOL    HW111091   4.030   2.964   4.556
 3652SOL    HW211092   3.964   2.856   4.638
 3653SOL     OW11093   4.261   2.824   3.891
 3653SOL    HW111094   4.295   2.866   3.970
 3653SOL    HW211095   4.305   2.870   3.819
 3654SOL     OW11096   3.826   2.476   4.264
 3654SOL    HW111097   3.788   2.553   4.222
 3654SOL    HW211098   3.900   2.452   4.207
 3655SOL     OW11099   3.735   3.481   3.835
 3655SOL    HW111100   3.778   3.555   3.792
 3655SOL    HW211101   3.714   3.420   3.764
 3656SOL     OW11102   4.293   3.227   4.443
 3656SOL    HW111103   4.387   3.242   4.431
 3656SOL    HW211104   4.267   3.289   4.511
 3657SOL     OW11105   4.543   1.847   4.233
 3657SOL    HW111106   4.609   1.832   4.301
 3657SOL    HW211107   4.554   1.939   4.208
 3658SOL     OW11108   3.840   2.773   4.970
 3658SOL    HW111109   3.863   2.845   5.029
 3658SOL    HW211110   3.924   2.734   4.945
 3659SOL     OW11111   4.314   2.569   4.000
 3659SOL    HW111112   4.240   2.581   4.059
 3659SOL    HW211113   4.318   2.650   3.949
 3660SOL     OW11114   4.802   2.530   4.118
 3660SOL    HW111115   4.807   2.535   4.214
 3660SOL    HW211116   4.714   2.495   4.101
 3661SOL     OW11117   3.832   2.619   4.508
 3661SOL    HW111118   3.759   2.677   4.491
 3661SOL    HW211119   3.836   2.561   4.432
 3662SOL     OW11120   4.622   2.196   3.939
 3662SOL    HW111121   4.601   2.286   3.963
 3662SOL    HW211122   4.572   2.180   3.859
 3663SOL     OW11123   4.260   2.028   4.633
 3663SOL    HW111124   4.222   2.058   4.716
 3663SOL    HW211125   4.296   2.108   4.594
 3664SOL     OW11126   4.697   3.273   4.237
 3664SOL    HW111127   4.773   3.325   4.260
 3664SOL    HW211128   4.731   3.184   4.223
 3665SOL     OW11129   4.112   3.656   4.582
 3665SOL    HW111130   4.025   3.662   4.621
 3665SOL    HW211131   4.105   3.707   4.501
 3666SOL     OW11132   3.973   2.744   3.926
 3666SOL    HW111133   3.941   2.718   4.013
 3666SOL    HW211134   4.064   2.767   3.940
 3667SOL     OW11135   4.787   3.664   3.946
 3667SOL    HW111136   4.849   3.736   3.957
 3667SOL    HW211137   4.839   3.593   3.907
 3668SOL     OW11138   4.161   3.581   4.074
 3668SOL    HW111139   4.214   3.509   4.108
 3668SOL    HW211140   4.074   3.567   4.111
 3669SOL     OW11141   3.948   3.648   4.974
 3669SOL    HW111142   4.028   3.607   4.942
 3669SOL    HW211143   3.963   3.742   4.964
 3670SOL     OW11144   4.727   3.543   4.642
 3670SOL    HW111145   4.716   3.597   4.720
 3670SOL    HW211146   4.671   3.467   4.657
 3671SOL     OW11147   4.102   2.598   4.171
 3671SOL    HW111148   4.128   2.526   4.228
 3671SOL    HW211149   4.095   2.673   4.230
 3672SOL     OW11150   4.336   1.957   3.891
 3672SOL    HW111151   4.245   1.929   3.890
 3672SOL    HW211152   4.364   1.950   3.799
 3673SOL     OW11153   4.575   3.316   4.653
 3673SOL    HW111154   4.524   3.338   4.575
 3673SOL    HW211155   4.531   3.239   4.689
 3674SOL     OW11156   4.688   2.362   4.644
 3674SOL    HW111157   4.748   2.438   4.643
 3674SOL    HW211158   4.608   2.396   4.683
 3675SOL     OW11159   4.270   1.911   4.238
 3675SOL    HW111160   4.360   1.882   4.252
 3675SOL    HW211161   4.278   1.995   4.193
 3676SOL     OW11162   4.076   1.876   3.870
 3676SOL    HW111163   4.084   1.810   3.939
 3676SOL    HW211164   3.997   1.851   3.822
 3677SOL     OW11165   4.577   2.112   4.194
 3677SOL    HW111166   4.490   2.152   4.188
 3677SOL    HW211167   4.617   2.130   4.109
 3678SOL     OW11168   4.911   3.428   4.469
 3678SOL    HW111169   4.847   3.467   4.529
 3678SOL    HW211170   4.905   3.334   4.487
 3679SOL     OW11171   4.163   2.994   4.433
 3679SOL    HW111172   4.209   3.078   4.439
 3679SOL    HW211173   4.232   2.928   4.442
 3680SOL     OW11174   4.966   3.678   4.367
 3680SOL    HW111175   5.049   3.701   4.409
 3680SOL    HW211176   4.954   3.585   4.386
 3681SOL     OW11177   4.833   2.440   3.723
 3681SOL    HW111178   4.873   2.441   3.810
 3681SOL    HW211179   4.773   2.514   3.724
 3682SOL     OW11180   4.575   2.364   4.333
 3682SOL    HW111181   4.617   2.397   4.413
 3682SOL    HW211182   4.614   2.278   4.319
 3683SOL     OW11183   4.749   1.868   4.406
 3683SOL    HW111184   4.729   1.821   4.487
 3683SOL    HW211185   4.749   1.960   4.430
 3684SOL     OW11186   4.205   3.237   3.902
 3684SOL    HW111187   4.187   3.237   3.808
 3684SOL    HW211188   4.300   3.233   3.908
 3685SOL     OW11189   4.305   2.141   4.087
 3685SOL    HW111190   4.270   2.212   4.032
 3685SOL    HW211191   4.329   2.072   4.026
 3686SOL     OW11192   4.813   3.057   4.812
 3686SOL    HW111193   4.903   3.080   4.790
 3686SOL    HW211194   4.819   3.018   4.899
 3687SOL     OW11195   4.399   2.959   4.105
 3687SOL    HW111196   4.476   2.908   4.079
 3687SOL    HW211197   4.424   3.050   4.088
 3688SOL     OW11198   4.102   2.664   4.938
 3688SOL    HW111199   4.161   2.717   4.991
 3688SOL    HW211200   4.078   2.591   4.995
 3689SOL     OW11201   4.022   2.948   4.200
 3689SOL    HW111202   4.055   2.952   4.290
 3689SOL    HW211203   4.093   2.984   4.147
 3690SOL     OW11204   4.298   2.391   4.560
 3690SOL    HW111205   4.216   2.392   4.610
 3690SOL    HW211206   4.272   2.364   4.472
 3691SOL     OW11207   4.954   3.191   4.145
 3691SOL    HW111208   4.955   3.257   4.076
 3691SOL    HW211209   4.962   3.107   4.099
 3692SOL     OW11210   4.359   2.750   4.774
 3692SOL    HW111211   4.339   2.764   4.867
 3692SOL    HW211212   4.273   2.747   4.732
 3693SOL     OW11213   0.054   2.711   4.774
 3693SOL    HW111214   0.141   2.674   4.763
 3693SOL    HW211215   0.068   2.793   4.821
 3694SOL     OW11216   4.974   2.375   3.976
 3694SOL    HW111217   4.925   2.436   4.030
 3694SOL    HW211218   4.955   2.289   4.013
 3695SOL     OW11219   3.788   3.121   4.973
 3695SOL    HW111220   3.702   3.153   4.997
 3695SOL    HW211221   3.786   3.116   4.877
 3696SOL     OW11222   4.468   2.492   4.753
 3696SOL    HW111223   4.436   2.582   4.761
 3696SOL    HW211224   4.411   2.451   4.688
 3697SOL     OW11225   4.015   1.931   4.339
 3697SOL    HW111226   4.108   1.924   4.315
 3697SOL    HW211227   4.006   2.021   4.372
 3698SOL     OW11228   4.807   2.623   4.648
 3698SOL    HW111229   4.875   2.654   4.707
 3698SOL    HW211230   4.750   2.699   4.634
 3699SOL     OW11231   0.262   2.163   3.892
 3699SOL    HW111232   0.332   2.215   3.931
 3699SOL    HW211233   0.290   2.072   3.905
 3700SOL     OW11234   4.791   3.178   4.550
 3700SOL    HW111235   4.825   3.133   4.627
 3700SOL    HW211236   4.714   3.225   4.581
 3701SOL     OW11237   4.093   2.699   4.666
 3701SOL    HW111238   4.088   2.674   4.759
 3701SOL    HW211239   4.030   2.641   4.623
 3702SOL     OW11240   4.077   2.385   4.713
 3702SOL    HW111241   3.999   2.331   4.697
 3702SOL    HW211242   4.101   2.365   4.804
 3703SOL     OW11243   4.900   2.090   0.192
 3703SOL    HW111244   4.955   2.074   0.268
 3703SOL    HW211245   4.810   2.088   0.226
 3704SOL     OW11246   3.726   3.186   3.874
 3704SOL    HW111247   3.751   3.115   3.934
 3704SOL    HW211248   3.726   3.264   3.928
 3705SOL     OW11249   3.850   3.675   4.665
 3705SOL    HW111250   3.799   3.666   4.745
 3705SOL    HW211251   3.827   3.599   4.612
 3706SOL     OW11252   4.193   3.404   4.609
 3706SOL    HW111253   4.142   3.369   4.683
 3706SOL    HW211254   4.169   3.496   4.605
 3707SOL     OW11255   4.642   2.640   4.951
 3707SOL    HW111256   4.670   2.566   5.006
 3707SOL    HW211257   4.615   2.600   4.869
 3708SOL     OW11258   3.705   2.387   4.800
 3708SOL    HW111259   3.762   2.452   4.760
 3708SOL    HW211260   3.752   2.304   4.790
 3709SOL     OW11261   4.548   2.436   4.070
 3709SOL    HW111262   4.541   2.416   4.163
 3709SOL    HW211263   4.467   2.481   4.048
 3710SOL     OW11264   4.376   2.363   5.002
 3710SOL    HW111265   4.442   2.316   5.053
 3710SOL    HW211266   4.425   2.399   4.927
 3711SOL     OW11267   4.227   2.327   3.908
 3711SOL    HW111268   4.261   2.414   3.932
 3711SOL    HW211269   4.181   2.342   3.826
 3712SOL     OW11270   3.887   2.968   0.166
 3712SOL    HW111271   3.855   3.013   0.244
 3712SOL    HW211272   3.865   3.026   0.094
 3713SOL     OW11273   4.950   3.561   4.866
 3713SOL    HW111274   4.873   3.618   4.863
 3713SOL    HW211275   4.927   3.486   4.812
 3714SOL     OW11276   3.808   3.154   4.707
 3714SOL    HW111277   3.888   3.206   4.714
 3714SOL    HW211278   3.837   3.071   4.669
 3715SOL     OW11279   4.366   3.522   3.842
 3715SOL    HW111280   4.437   3.523   3.906
 3715SOL    HW211281   4.287   3.508   3.893
 3716SOL     OW11282   4.007   2.194   4.436
 3716SOL    HW111283   4.000   2.188   4.532
 3716SOL    HW211284   3.917   2.213   4.407
 3717SOL     OW11285   4.609   2.894   0.038
 3717SOL    HW111286   4.586   2.876   0.129
 3717SOL    HW211287   4.615   2.807  -0.003
 3718SOL     OW11288   4.606   2.809   4.013
 3718SOL    HW111289   4.624   2.721   4.045
 3718SOL    HW211290   4.680   2.830   3.956
 3719SOL     OW11291   4.809   2.976   4.362
 3719SOL    HW111292   4.803   3.052   4.420
 3719SOL    HW211293   4.762   2.907   4.408
 3720SOL     OW11294   4.749   2.111   4.748
 3720SOL    HW111295   4.726   2.199   4.718
 3720SOL    HW211296   4.794   2.071   4.674
 3721SOL     OW11297   4.290   3.371   4.187
 3721SOL    HW111298   4.346   3.322   4.126
 3721SOL    HW211299   4.332   3.359   4.273
 3722SOL     OW11300   4.004   3.269   4.084
 3722SOL    HW111301   4.082   3.250   4.032
 3722SOL    HW211302   3.942   3.307   4.022
 3723SOL     OW11303   3.813   2.164   3.793
 3723SOL    HW111304   3.862   2.245   3.803
 3723SOL    HW211305   3.755   2.180   3.718
 3724SOL     OW11306   3.743   2.090   4.062
 3724SOL    HW111307   3.738   1.995   4.066
 3724SOL    HW211308   3.774   2.109   3.973
 3725SOL     OW11309   4.314   2.619   4.384
 3725SOL    HW111310   4.299   2.591   4.474
 3725SOL    HW211311   4.342   2.540   4.338
 3726SOL     OW11312   4.569   3.233   3.744
 3726SOL    HW111313   4.615   3.312   3.718
 3726SOL    HW211314   4.614   3.162   3.698
 3727SOL     OW11315   4.368   3.737   4.674
 3727SOL    HW111316   4.432   3.668   4.692
 3727SOL    HW211317   4.288   3.690   4.649
 3728SOL     OW11318   4.646   2.843   4.564
 3728SOL    HW111319   4.634   2.915   4.626
 3728SOL    HW211320   4.565   2.842   4.513
 3729SOL     OW11321   4.822   2.815   3.832
 3729SOL    HW111322   4.887   2.840   3.766
 3729SOL    HW211323   4.763   2.755   3.786
 3730SOL     OW11324   3.802   3.128   4.364
 3730SOL    HW111325   3.767   3.081   4.440
 3730SOL    HW211326   3.813   3.060   4.297
 3731SOL     OW11327   4.197   2.336   4.296
 3731SOL    HW111328   4.127   2.285   4.339
 3731SOL    HW211329   4.232   2.277   4.230
 3732SOL     OW11330   4.510   3.396   4.389
 3732SOL    HW111331   4.513   3.488   4.364
 3732SOL    HW211332   4.577   3.354   4.336
 3733SOL     OW11333   4.745   1.876   4.901
 3733SOL    HW111334   4.756   1.967   4.873
 3733SOL    HW211335   4.668   1.846   4.854
 3734SOL     OW11336   4.487   3.225   4.023
 3734SOL    HW111337   4.556   3.261   4.079
 3734SOL    HW211338   4.521   3.236   3.934
 3735SOL     OW11339   3.813   2.976   4.024
 3735SOL    HW111340   3.879   2.969   4.093
 3735SOL    HW211341   3.832   2.904   3.965
 3736SOL     OW11342   4.552   3.551   4.040
 3736SOL    HW111343   4.547   3.583   4.130
 3736SOL    HW211344   4.634   3.588   4.006
 3737SOL     OW11345   3.960   4.327   0.078
 3737SOL    HW111346   3.896   4.325   0.150
 3737SOL    HW211347   4.037   4.283   0.113
 3738SOL     OW11348   4.010   3.933   1.004
 3738SOL    HW111349   3.989   3.992   0.931
 3738SOL    HW211350   3.946   3.862   0.997
 3739SOL     OW11351   3.721   4.111   0.685
 3739SOL    HW111352   3.756   4.192   0.647
 3739SOL    HW211353   3.628   4.131   0.701
 3740SOL     OW11354   4.797   4.376   0.704
 3740SOL    HW111355   4.880   4.405   0.741
 3740SOL    HW211356   4.797   4.410   0.614
 3741SOL     OW11357   4.511   4.860   1.031
 3741SOL    HW111358   4.563   4.925   1.077
 3741SOL    HW211359   4.575   4.798   0.997
 3742SOL     OW11360   4.559   4.544   1.855
 3742SOL    HW111361   4.470   4.516   1.877
 3742SOL    HW211362   4.555   4.640   1.856
 3743SOL     OW11363   4.430   4.716   0.667
 3743SOL    HW111364   4.397   4.626   0.675
 3743SOL    HW211365   4.428   4.734   0.574
 3744SOL     OW11366   4.428   4.844   1.771
 3744SOL    HW111367   4.412   4.933   1.801
 3744SOL    HW211368   4.393   4.841   1.683
 3745SOL     OW11369   4.179   4.140   1.526
 3745SOL    HW111370   4.238   4.208   1.559
 3745SOL    HW211371   4.099   4.151   1.577
 3746SOL     OW11372   3.976   4.811   0.901
 3746SOL    HW111373   4.003   4.721   0.921
 3746SOL    HW211374   4.052   4.851   0.860
 3747SOL     OW11375   4.291   4.757   0.086
 3747SOL    HW111376   4.386   4.766   0.078
 3747SOL    HW211377   4.278   4.665   0.107
 3748SOL     OW11378   3.843   4.353   0.606
 3748SOL    HW111379   3.833   4.410   0.682
 3748SOL    HW211380   3.807   4.404   0.533
 3749SOL     OW11381   3.806   4.472   1.626
 3749SOL    HW111382   3.738   4.432   1.680
 3749SOL    HW211383   3.818   4.411   1.553
 3750SOL     OW11384   4.515   3.736   0.478
 3750SOL    HW111385   4.596   3.785   0.491
 3750SOL    HW211386   4.542   3.654   0.436
 3751SOL     OW11387   3.909   4.666   1.282
 3751SOL    HW111388   3.902   4.732   1.351
 3751SOL    HW211389   3.820   4.632   1.272
 3752SOL     OW11390   4.024   3.971   1.823
 3752SOL    HW111391   4.105   3.932   1.788
 3752SOL    HW211392   4.015   4.053   1.776
 3753SOL     OW11393   4.350   4.485   0.246
 3753SOL    HW111394   4.419   4.435   0.289
 3753SOL    HW211395   4.293   4.418   0.207
 3754SOL     OW11396   4.491   4.374   1.470
 3754SOL    HW111397   4.480   4.335   1.556
 3754SOL    HW211398   4.485   4.301   1.409
 3755SOL     OW11399   4.666   4.573   1.595
 3755SOL    HW111400   4.632   4.546   1.680
 3755SOL    HW211401   4.610   4.529   1.531
 3756SOL     OW11402   4.797   4.108   1.232
 3756SOL    HW111403   4.737   4.180   1.255
 3756SOL    HW211404   4.753   4.061   1.162
 3757SOL     OW11405   4.774   4.433   0.433
 3757SOL    HW111406   4.843   4.381   0.392
 3757SOL    HW211407   4.692   4.391   0.406
 3758SOL     OW11408   3.828   4.575   0.780
 3758SOL    HW111409   3.896   4.558   0.844
 3758SOL    HW211410   3.863   4.645   0.724
 3759SOL     OW11411   4.629   4.106   0.193
 3759SOL    HW111412   4.695   4.041   0.216
 3759SOL    HW211413   4.559   4.057   0.151
 3760SOL     OW11414   4.262   3.982   0.853
 3760SOL    HW111415   4.170   3.965   0.874
 3760SOL    HW211416   4.277   3.934   0.771
 3761SOL     OW11417   4.042   4.644   0.340
 3761SOL    HW111418   3.950   4.649   0.314
 3761SOL    HW211419   4.067   4.553   0.322
 3762SOL     OW11420   3.853   3.996   1.519
 3762SOL    HW111421   3.840   4.090   1.512
 3762SOL    HW211422   3.919   3.976   1.452
 3763SOL     OW11423   4.087   4.364   0.449
 3763SOL    HW111424   4.147   4.417   0.502
 3763SOL    HW211425   4.004   4.366   0.497
 3764SOL     OW11426   4.380   3.889   0.050
 3764SOL    HW111427   4.332   3.903   0.132
 3764SOL    HW211428   4.377   3.973   0.005
 3765SOL     OW11429   4.512   4.007   1.748
 3765SOL    HW111430   4.584   3.945   1.759
 3765SOL    HW211431   4.475   3.986   1.662
 3766SOL     OW11432   4.609   4.244   0.876
 3766SOL    HW111433   4.591   4.285   0.960
 3766SOL    HW211434   4.679   4.296   0.837
 3767SOL     OW11435   4.302   3.856   0.600
 3767SOL    HW111436   4.231   3.794   0.582
 3767SOL    HW211437   4.379   3.818   0.557
 3768SOL     OW11438   4.034   3.793   0.228
 3768SOL    HW111439   4.032   3.845   0.147
 3768SOL    HW211440   3.974   3.720   0.211
 3769SOL     OW11441   4.716   3.931   0.525
 3769SOL    HW111442   4.782   3.959   0.461
 3769SOL    HW211443   4.670   4.011   0.549
 3770SOL     OW11444   4.875   4.405   1.447
 3770SOL    HW111445   4.942   4.427   1.511
 3770SOL    HW211446   4.806   4.470   1.460
 3771SOL     OW11447   4.212   4.905   0.778
 3771SOL    HW111448   4.295   4.864   0.801
 3771SOL    HW211449   4.191   4.870   0.691
 3772SOL     OW11450   4.756   4.263   0.005
 3772SOL    HW111451   4.710   4.214   0.073
 3772SOL    HW211452   4.734   4.217  -0.076
 3773SOL     OW11453   3.754   4.261   1.431
 3773SOL    HW111454   3.671   4.305   1.418
 3773SOL    HW211455   3.790   4.250   1.342
 3774SOL     OW11456   4.370   3.943   1.113
 3774SOL    HW111457   4.324   3.970   1.033
 3774SOL    HW211458   4.366   3.847   1.110
 3775SOL     OW11459   4.615   4.179   0.602
 3775SOL    HW111460   4.694   4.232   0.611
 3775SOL    HW211461   4.579   4.173   0.691
 3776SOL     OW11462   4.785   3.763   0.730
 3776SOL    HW111463   4.868   3.795   0.767
 3776SOL    HW211464   4.761   3.829   0.665
 3777SOL     OW11465   4.252   3.957   0.281
 3777SOL    HW111466   4.256   3.980   0.374
 3777SOL    HW211467   4.173   3.904   0.272
 3778SOL     OW11468   4.642   3.831   1.375
 3778SOL    HW111469   4.593   3.758   1.412
 3778SOL    HW211470   4.587   3.908   1.392
 3779SOL     OW11471   4.704   4.832   1.725
 3779SOL    HW111472   4.609   4.838   1.736
 3779SOL    HW211473   4.716   4.766   1.657
 3780SOL     OW11474   4.414   4.725   0.394
 3780SOL    HW111475   4.416   4.807   0.344
 3780SOL    HW211476   4.366   4.664   0.338
 3781SOL     OW11477   4.154   4.568   1.204
 3781SOL    HW111478   4.201   4.559   1.287
 3781SOL    HW211479   4.066   4.596   1.230
 3782SOL     OW11480   4.134   4.808   0.534
 3782SOL    HW111481   4.185   4.878   0.493
 3782SOL    HW211482   4.103   4.755   0.460
 3783SOL     OW11483   4.303   4.247   0.867
 3783SOL    HW111484   4.390   4.261   0.829
 3783SOL    HW211485   4.289   4.152   0.859
 3784SOL     OW11486   4.123   4.431   1.595
 3784SOL    HW111487   4.106   4.488   1.671
 3784SOL    HW211488   4.177   4.484   1.537
 3785SOL     OW11489   4.712   3.816   1.775
 3785SOL    HW111490   4.669   3.763   1.842
 3785SOL    HW211491   4.773   3.756   1.733
 3786SOL     OW11492   4.248   3.834   1.737
 3786SOL    HW111493   4.296   3.878   1.667
 3786SOL    HW211494   4.238   3.744   1.706
 3787SOL     OW11495   4.368   4.618   1.045
 3787SOL    HW111496   4.395   4.709   1.061
 3787SOL    HW211497   4.294   4.605   1.104
 3788SOL     OW11498   0.008   4.631   1.033
 3788SOL    HW111499   0.050   4.629   1.119
 3788SOL    HW211500   0.051   4.703   0.987
 3789SOL     OW11501   4.939   4.259   0.299
 3789SOL    HW111502   5.001   4.194   0.332
 3789SOL    HW211503   4.922   4.234   0.209
 3790SOL     OW11504   3.986   3.944   1.278
 3790SOL    HW111505   3.895   3.918   1.267
 3790SOL    HW211506   4.023   3.940   1.190
 3791SOL     OW11507   4.434   4.349   1.086
 3791SOL    HW111508   4.424   4.444   1.087
 3791SOL    HW211509   4.373   4.318   1.019
 3792SOL     OW11510   4.007   3.813   0.602
 3792SOL    HW111511   4.017   3.866   0.523
 3792SOL    HW211512   3.973   3.729   0.571
 3793SOL     OW11513   4.778   4.458   1.024
 3793SOL    HW111514   4.862   4.504   1.026
 3793SOL    HW211515   4.720   4.515   0.975
 3794SOL     OW11516   4.081   4.580   1.825
 3794SOL    HW111517   4.150   4.634   1.863
 3794SOL    HW211518   4.011   4.643   1.805
 3795SOL     OW11519   4.059   4.544   0.932
 3795SOL    HW111520   4.107   4.567   1.011
 3795SOL    HW211521   4.043   4.450   0.941
 3796SOL     OW11522   4.051   4.281   0.990
 3796SOL    HW111523   4.067   4.257   1.081
 3796SOL    HW211524   4.132   4.256   0.944
 3797SOL     OW11525   4.848   4.051   1.720
 3797SOL    HW111526   4.796   3.974   1.739
 3797SOL    HW211527   4.873   4.041   1.629
 3798SOL     OW11528   4.877   3.961   1.455
 3798SOL    HW111529   4.875   4.022   1.381
 3798SOL    HW211530   4.809   3.897   1.435
 3799SOL     OW11531   3.694   0.047   0.157
 3799SOL    HW111532   3.736  -0.035   0.180
 3799SOL    HW211533   3.609   0.022   0.120
 3800SOL     OW11534   4.714   4.615   1.261
 3800SOL    HW111535   4.719   4.524   1.232
 3800SOL    HW211536   4.777   4.662   1.206
 3801SOL     OW11537   3.796   4.248   1.152
 3801SOL    HW111538   3.888   4.252   1.177
 3801SOL    HW211539   3.797   4.226   1.059
 3802SOL     OW11540   3.974   4.220   1.696
 3802SOL    HW111541   3.897   4.252   1.742
 3802SOL    HW211542   4.017   4.299   1.664
 3803SOL     OW11543   4.539   4.305   0.360
 3803SOL    HW111544   4.538   4.257   0.443
 3803SOL    HW211545   4.565   4.239   0.295
 3804SOL     OW11546   4.441   4.162   1.284
 3804SOL    HW111547   4.438   4.231   1.217
 3804SOL    HW211548   4.412   4.083   1.239
 3805SOL     OW11549   4.186   4.236   0.214
 3805SOL    HW111550   4.210   4.146   0.235
 3805SOL    HW211551   4.157   4.272   0.298
 3806SOL     OW11552   3.838   4.879   1.454
 3806SOL    HW111553   3.924   4.912   1.480
 3806SOL    HW211554   3.806   4.944   1.391
 3807SOL     OW11555   3.815   4.980   1.042
 3807SOL    HW111556   3.869   4.982   1.121
 3807SOL    HW211557   3.860   4.917   0.985
 3808SOL     OW11558   4.598   3.747   0.101
 3808SOL    HW111559   4.574   3.728   0.192
 3808SOL    HW211560   4.522   3.793   0.066
 3809SOL     OW11561   3.976   4.036   0.759
 3809SOL    HW111562   3.897   4.079   0.727
 3809SOL    HW211563   3.990   3.964   0.699
 3810SOL     OW11564   4.502   4.757   1.373
 3810SOL    HW111565   4.533   4.847   1.379
 3810SOL    HW211566   4.576   4.708   1.338
 3811SOL     OW11567   4.664   4.649   0.298
 3811SOL    HW111568   4.710   4.583   0.350
 3811SOL    HW211569   4.585   4.669   0.349
 3812SOL     OW11570   4.076   0.007   1.484
 3812SOL    HW111571   4.114   0.014   1.571
 3812SOL    HW211572   4.145   0.037   1.424
 3813SOL     OW11573   4.756   4.812   0.656
 3813SOL    HW111574   4.843   4.853   0.660
 3813SOL    HW211575   4.774   4.720   0.638
 3814SOL     OW11576   4.672   3.986   1.013
 3814SOL    HW111577   4.579   3.963   1.015
 3814SOL    HW211578   4.678   4.057   0.949
 3815SOL     OW11579   3.845   4.706   1.760
 3815SOL    HW111580   3.762   4.752   1.752
 3815SOL    HW211581   3.834   4.627   1.708
 3816SOL     OW11582   4.394   3.944   1.516
 3816SOL    HW111583   4.333   4.004   1.473
 3816SOL    HW211584   4.379   3.860   1.473
 3817SOL     OW11585   3.769   3.953   0.286
 3817SOL    HW111586   3.837   3.884   0.286
 3817SOL    HW211587   3.712   3.931   0.359
 3818SOL     OW11588   4.309   4.572   1.435
 3818SOL    HW111589   4.372   4.501   1.447
 3818SOL    HW211590   4.362   4.649   1.415
 3819SOL     OW11591   4.457   4.272   1.719
 3819SOL    HW111592   4.514   4.309   1.786
 3819SOL    HW211593   4.466   4.177   1.730
 3820SOL     OW11594   4.226   4.512   0.641
 3820SOL    HW111595   4.202   4.491   0.731
 3820SOL    HW211596   4.195   4.601   0.628
 3821SOL     OW11597   4.604   4.631   0.894
 3821SOL    HW111598   4.519   4.614   0.932
 3821SOL    HW211599   4.585   4.673   0.810
 3822SOL     OW11600   4.902   4.744   0.059
 3822SOL    HW111601   4.839   4.815   0.045
 3822SOL    HW211602   4.853   4.664   0.040
 3823SOL     OW11603   3.712  -0.015   0.717
 3823SOL    HW111604   3.804   0.000   0.695
 3823SOL    HW211605   3.690   0.057   0.776
 3824SOL     OW11606   4.148   4.099   0.497
 3824SOL    HW111607   4.198   4.093   0.579
 3824SOL    HW211608   4.120   4.190   0.493
 3825SOL     OW11609   4.052   4.214   1.259
 3825SOL    HW111610   4.104   4.248   1.332
 3825SOL    HW211611   4.043   4.121   1.278
 3826SOL     OW11612   4.733   3.732   1.130
 3826SOL    HW111613   4.707   3.753   1.219
 3826SOL    HW211614   4.728   3.816   1.083
 3827SOL     OW11615   4.483  -0.019   0.313
 3827SOL    HW111616   4.548   0.001   0.380
 3827SOL    HW211617   4.520   0.015   0.232
 3828SOL     OW11618   3.937   4.379   1.955
 3828SOL    HW111619   3.985   4.444   1.903
 3828SOL    HW211620   4.006   4.323   1.992
 3829SOL     OW11621   3.953   3.976   2.838
 3829SOL    HW111622   3.991   3.949   2.922
 3829SOL    HW211623   3.895   4.048   2.860
 3830SOL     OW11624   3.734   4.147   2.501
 3830SOL    HW111625   3.818   4.119   2.536
 3830SOL    HW211626   3.695   4.068   2.465
 3831SOL     OW11627   4.827   4.388   2.561
 3831SOL    HW111628   4.898   4.448   2.582
 3831SOL    HW211629   4.868   4.302   2.556
 3832SOL     OW11630   4.490   4.902   2.855
 3832SOL    HW111631   4.407   4.912   2.902
 3832SOL    HW211632   4.486   4.968   2.786
 3833SOL     OW11633   4.599   4.499   3.742
 3833SOL    HW111634   4.519   4.496   3.794
 3833SOL    HW211635   4.591   4.427   3.680
 3834SOL     OW11636   4.405   4.742   2.477
 3834SOL    HW111637   4.389   4.751   2.383
 3834SOL    HW211638   4.375   4.654   2.498
 3835SOL     OW11639   4.454   4.871   3.664
 3835SOL    HW111640   4.456   4.919   3.747
 3835SOL    HW211641   4.383   4.912   3.615
 3836SOL     OW11642   4.187   4.108   3.345
 3836SOL    HW111643   4.222   4.168   3.412
 3836SOL    HW211644   4.156   4.166   3.275
 3837SOL     OW11645   3.966   4.777   2.823
 3837SOL    HW111646   4.044   4.800   2.773
 3837SOL    HW211647   3.922   4.710   2.771
 3838SOL     OW11648   4.294   4.700   1.963
 3838SOL    HW111649   4.324   4.734   2.047
 3838SOL    HW211650   4.339   4.753   1.898
 3839SOL     OW11651   3.839   4.394   2.424
 3839SOL    HW111652   3.787   4.319   2.451
 3839SOL    HW211653   3.925   4.358   2.400
 3840SOL     OW11654   3.840   4.494   3.441
 3840SOL    HW111655   3.762   4.547   3.459
 3840SOL    HW211656   3.880   4.536   3.365
 3841SOL     OW11657   4.541   3.664   2.402
 3841SOL    HW111658   4.607   3.706   2.458
 3841SOL    HW211659   4.469   3.727   2.400
 3842SOL     OW11660   3.899   4.703   3.137
 3842SOL    HW111661   3.972   4.644   3.120
 3842SOL    HW211662   3.887   4.751   3.056
 3843SOL     OW11663   4.030   3.984   3.691
 3843SOL    HW111664   4.112   3.935   3.680
 3843SOL    HW211665   3.985   3.974   3.607
 3844SOL     OW11666   4.354   4.459   2.091
 3844SOL    HW111667   4.291   4.455   2.164
 3844SOL    HW211668   4.328   4.538   2.042
 3845SOL     OW11669   4.517   4.327   3.358
 3845SOL    HW111670   4.563   4.408   3.337
 3845SOL    HW211671   4.503   4.285   3.274
 3846SOL     OW11672   4.689   4.584   3.416
 3846SOL    HW111673   4.694   4.652   3.483
 3846SOL    HW211674   4.677   4.632   3.334
 3847SOL     OW11675   4.680   4.118   3.182
 3847SOL    HW111676   4.758   4.069   3.153
 3847SOL    HW211677   4.713   4.179   3.247
 3848SOL     OW11678   4.758   4.389   2.293
 3848SOL    HW111679   4.780   4.402   2.385
 3848SOL    HW211680   4.739   4.478   2.260
 3849SOL     OW11681   3.821   4.572   2.661
 3849SOL    HW111682   3.903   4.534   2.691
 3849SOL    HW211683   3.800   4.523   2.581
 3850SOL     OW11684   4.589   4.039   2.058
 3850SOL    HW111685   4.558   4.110   2.114
 3850SOL    HW211686   4.626   4.083   1.981
 3851SOL     OW11687   4.268   3.871   2.750
 3851SOL    HW111688   4.193   3.812   2.758
 3851SOL    HW211689   4.273   3.891   2.657
 3852SOL     OW11690   4.025   4.711   2.126
 3852SOL    HW111691   4.063   4.759   2.052
 3852SOL    HW211692   4.008   4.623   2.091
 3853SOL     OW11693   3.923   3.994   3.431
 3853SOL    HW111694   4.000   3.990   3.375
 3853SOL    HW211695   3.918   4.085   3.460
 3854SOL     OW11696   4.156   4.449   2.277
 3854SOL    HW111697   4.171   4.387   2.348
 3854SOL    HW211698   4.126   4.529   2.319
 3855SOL     OW11699   4.360   3.873   2.000
 3855SOL    HW111700   4.442   3.923   1.997
 3855SOL    HW211701   4.335   3.863   1.908
 3856SOL     OW11702   4.499   3.982   3.610
 3856SOL    HW111703   4.449   3.943   3.682
 3856SOL    HW211704   4.471   4.074   3.609
 3857SOL     OW11705   4.639   4.179   2.792
 3857SOL    HW111706   4.591   4.253   2.828
 3857SOL    HW211707   4.622   4.183   2.697
 3858SOL     OW11708   4.296   3.804   2.380
 3858SOL    HW111709   4.282   3.877   2.319
 3858SOL    HW211710   4.277   3.726   2.329
 3859SOL     OW11711   0.104   4.865   1.932
 3859SOL    HW111712   0.192   4.880   1.968
 3859SOL    HW211713   0.059   4.949   1.943
 3860SOL     OW11714   4.038   3.775   2.023
 3860SOL    HW111715   4.055   3.821   2.105
 3860SOL    HW211716   4.044   3.843   1.956
 3861SOL     OW11717   4.700   3.968   2.352
 3861SOL    HW111718   4.783   4.008   2.325
 3861SOL    HW211719   4.652   3.954   2.271
 3862SOL     OW11720   4.823   4.359   3.305
 3862SOL    HW111721   4.788   4.405   3.381
 3862SOL    HW211722   4.781   4.400   3.230
 3863SOL     OW11723   4.178   4.860   2.669
 3863SOL    HW111724   4.160   4.952   2.650
 3863SOL    HW211725   4.218   4.827   2.588
 3864SOL     OW11726   4.710   4.238   1.876
 3864SOL    HW111727   4.740   4.327   1.858
 3864SOL    HW211728   4.758   4.184   1.814
 3865SOL     OW11729   3.823   4.258   3.273
 3865SOL    HW111730   3.845   4.257   3.366
 3865SOL    HW211731   3.750   4.319   3.266
 3866SOL     OW11732   4.290   3.961   3.017
 3866SOL    HW111733   4.351   3.890   3.036
 3866SOL    HW211734   4.275   3.955   2.923
 3867SOL     OW11735   4.594   4.175   2.522
 3867SOL    HW111736   4.658   4.239   2.491
 3867SOL    HW211737   4.609   4.098   2.468
 3868SOL     OW11738   4.723   3.788   2.572
 3868SOL    HW111739   4.728   3.835   2.655
 3868SOL    HW211740   4.723   3.857   2.505
 3869SOL     OW11741   4.198   3.980   2.184
 3869SOL    HW111742   4.166   4.057   2.137
 3869SOL    HW211743   4.257   3.936   2.122
 3870SOL     OW11744   4.707   4.823   3.576
 3870SOL    HW111745   4.750   4.782   3.651
 3870SOL    HW211746   4.615   4.832   3.603
 3871SOL     OW11747   4.430   4.772   2.191
 3871SOL    HW111748   4.512   4.721   2.193
 3871SOL    HW211749   4.459   4.862   2.175
 3872SOL     OW11750   4.115   4.542   3.090
 3872SOL    HW111751   4.186   4.552   3.154
 3872SOL    HW211752   4.157   4.552   3.005
 3873SOL     OW11753   4.063   4.834   2.371
 3873SOL    HW111754   3.978   4.800   2.402
 3873SOL    HW211755   4.068   4.805   2.280
 3874SOL     OW11756   4.254   4.255   2.676
 3874SOL    HW111757   4.207   4.253   2.759
 3874SOL    HW211758   4.331   4.201   2.691
 3875SOL     OW11759   4.153   4.431   3.459
 3875SOL    HW111760   4.137   4.504   3.520
 3875SOL    HW211761   4.066   4.395   3.441
 3876SOL     OW11762   4.709   3.810   3.575
 3876SOL    HW111763   4.787   3.852   3.612
 3876SOL    HW211764   4.637   3.869   3.598
 3877SOL     OW11765   4.221   3.825   3.584
 3877SOL    HW111766   4.294   3.792   3.637
 3877SOL    HW211767   4.202   3.753   3.523
 3878SOL     OW11768   4.295   4.563   2.878
 3878SOL    HW111769   4.347   4.643   2.868
 3878SOL    HW211770   4.360   4.493   2.883
 3879SOL     OW11771   0.045   4.571   2.903
 3879SOL    HW111772   0.078   4.619   2.979
 3879SOL    HW211773   0.067   4.626   2.828
 3880SOL     OW11774   4.933   4.168   2.216
 3880SOL    HW111775   4.873   4.241   2.228
 3880SOL    HW211776   4.953   4.167   2.123
 3881SOL     OW11777   4.011   3.930   3.108
 3881SOL    HW111778   4.106   3.947   3.110
 3881SOL    HW211779   4.004   3.835   3.111
 3882SOL     OW11780   4.488   4.373   2.929
 3882SOL    HW111781   4.564   4.412   2.972
 3882SOL    HW211782   4.455   4.310   2.993
 3883SOL     OW11783   4.052   3.781   2.504
 3883SOL    HW111784   4.138   3.788   2.461
 3883SOL    HW211785   4.008   3.863   2.483
 3884SOL     OW11786   4.793   4.461   2.874
 3884SOL    HW111787   4.877   4.507   2.869
 3884SOL    HW211788   4.772   4.439   2.784
 3885SOL     OW11789   4.101   4.647   3.619
 3885SOL    HW111790   4.008   4.665   3.637
 3885SOL    HW211791   4.135   4.728   3.583
 3886SOL     OW11792   0.290   4.007   1.989
 3886SOL    HW111793   0.197   4.030   1.989
 3886SOL    HW211794   0.292   3.916   2.019
 3887SOL     OW11795   4.060   4.490   2.748
 3887SOL    HW111796   4.139   4.536   2.776
 3887SOL    HW211797   4.065   4.405   2.793
 3888SOL     OW11798   4.074   4.252   2.884
 3888SOL    HW111799   4.098   4.243   2.977
 3888SOL    HW211800   3.980   4.237   2.883
 3889SOL     OW11801   4.866   4.120   3.544
 3889SOL    HW111802   4.922   4.101   3.620
 3889SOL    HW211803   4.919   4.176   3.488
 3890SOL     OW11804   4.892   3.903   3.308
 3890SOL    HW111805   4.923   3.967   3.372
 3890SOL    HW211806   4.969   3.851   3.286
 3891SOL     OW11807   3.657   0.041   2.063
 3891SOL    HW111808   3.689  -0.044   2.092
 3891SOL    HW211809   3.710   0.061   1.986
 3892SOL     OW11810   4.677   4.490   3.115
 3892SOL    HW111811   4.648   4.580   3.128
 3892SOL    HW211812   4.726   4.492   3.033
 3893SOL     OW11813   3.800   4.210   2.903
 3893SOL    HW111814   3.759   4.286   2.945
 3893SOL    HW211815   3.730   4.145   2.898
 3894SOL     OW11816   3.908   4.246   3.545
 3894SOL    HW111817   3.949   4.236   3.630
 3894SOL    HW211818   3.874   4.335   3.544
 3895SOL     OW11819   4.528   4.265   2.193
 3895SOL    HW111820   4.606   4.310   2.227
 3895SOL    HW211821   4.473   4.336   2.158
 3896SOL     OW11822   4.424   4.195   3.122
 3896SOL    HW111823   4.507   4.150   3.135
 3896SOL    HW211824   4.361   4.126   3.101
 3897SOL     OW11825   4.148   4.237   2.077
 3897SOL    HW111826   4.136   4.284   2.159
 3897SOL    HW211827   4.232   4.268   2.043
 3898SOL     OW11828   3.869   4.879   3.346
 3898SOL    HW111829   3.804   4.842   3.405
 3898SOL    HW211830   3.873   4.817   3.273
 3899SOL     OW11831   3.843   4.985   2.940
 3899SOL    HW111832   3.778   5.008   2.873
 3899SOL    HW211833   3.892   4.912   2.902
 3900SOL     OW11834   3.997   4.081   2.593
 3900SOL    HW111835   4.054   4.152   2.621
 3900SOL    HW211836   3.982   4.029   2.671
 3901SOL     OW11837   4.577   4.732   3.198
 3901SOL    HW111838   4.491   4.714   3.235
 3901SOL    HW211839   4.584   4.828   3.199
 3902SOL     OW11840   4.661   4.615   2.153
 3902SOL    HW111841   4.730   4.658   2.102
 3902SOL    HW211842   4.618   4.557   2.090
 3903SOL     OW11843   4.046   0.077   3.374
 3903SOL    HW111844   3.987   0.002   3.363
 3903SOL    HW211845   4.102   0.074   3.297
 3904SOL     OW11846   4.823   4.799   2.553
 3904SOL    HW111847   4.758   4.758   2.610
 3904SOL    HW211848   4.807   4.760   2.467
 3905SOL     OW11849   4.727   3.921   2.807
 3905SOL    HW111850   4.701   4.013   2.808
 3905SOL    HW211851   4.728   3.895   2.899
 3906SOL     OW11852   3.852   4.757   3.651
 3906SOL    HW111853   3.842   4.850   3.667
 3906SOL    HW211854   3.766   4.720   3.670
 3907SOL     OW11855   4.419   3.947   3.346
 3907SOL    HW111856   4.436   3.960   3.439
 3907SOL    HW211857   4.337   3.993   3.329
 3908SOL     OW11858   3.814   4.038   1.997
 3908SOL    HW111859   3.805   4.132   1.981
 3908SOL    HW211860   3.878   4.008   1.933
 3909SOL     OW11861   3.787   3.863   2.206
 3909SOL    HW111862   3.716   3.896   2.261
 3909SOL    HW211863   3.793   3.926   2.134
 3910SOL     OW11864   4.322   4.526   3.261
 3910SOL    HW111865   4.275   4.501   3.341
 3910SOL    HW211866   4.363   4.445   3.232
 3911SOL     OW11867   4.392   4.236   3.576
 3911SOL    HW111868   4.337   4.311   3.596
 3911SOL    HW211869   4.443   4.263   3.501
 3912SOL     OW11870   4.343   4.478   2.524
 3912SOL    HW111871   4.418   4.423   2.497
 3912SOL    HW211872   4.293   4.422   2.583
 3913SOL     OW11873   4.603   4.712   2.687
 3913SOL    HW111874   4.575   4.764   2.762
 3913SOL    HW211875   4.529   4.713   2.627
 3914SOL     OW11876   4.846   4.709   1.973
 3914SOL    HW111877   4.916   4.775   1.967
 3914SOL    HW211878   4.824   4.689   1.882
 3915SOL     OW11879   3.757  -0.001   2.558
 3915SOL    HW111880   3.717   0.057   2.624
 3915SOL    HW211881   3.714   0.023   2.476
 3916SOL     OW11882   4.128   4.180   2.371
 3916SOL    HW111883   4.080   4.133   2.439
 3916SOL    HW211884   4.170   4.111   2.320
 3917SOL     OW11885   4.071   4.276   3.161
 3917SOL    HW111886   4.076   4.370   3.141
 3917SOL    HW211887   3.981   4.262   3.187
 3918SOL     OW11888   4.729   3.758   3.052
 3918SOL    HW111889   4.811   3.707   3.049
 3918SOL    HW211890   4.665   3.701   3.010
 3919SOL     OW11891   4.531   0.024   2.144
 3919SOL    HW111892   4.534   0.024   2.240
 3919SOL    HW211893   4.564   0.110   2.118
 3920SOL     OW11894   3.762   4.801   2.128
 3920SOL    HW111895   3.858   4.798   2.132
 3920SOL    HW211896   3.734   4.722   2.174
 3921SOL     OW11897   3.925   4.352   3.857
 3921SOL    HW111898   3.835   4.362   3.889
 3921SOL    HW211899   3.961   4.441   3.862
 3922SOL     OW11900   3.970   3.920   4.704
 3922SOL    HW111901   3.894   3.978   4.716
 3922SOL    HW211902   3.932   3.834   4.686
 3923SOL     OW11903   3.719   4.075   4.379
 3923SOL    HW111904   3.726   4.163   4.341
 3923SOL    HW211905   3.730   4.016   4.304
 3924SOL     OW11906   4.826   4.446   4.436
 3924SOL    HW111907   4.843   4.352   4.445
 3924SOL    HW211908   4.798   4.474   4.523
 3925SOL     OW11909   4.487   4.906   4.745
 3925SOL    HW111910   4.557   4.935   4.803
 3925SOL    HW211911   4.443   4.986   4.718
 3926SOL     OW11912   4.445   4.734   4.308
 3926SOL    HW111913   4.494   4.712   4.387
 3926SOL    HW211914   4.354   4.738   4.336
 3927SOL     OW11915   3.980   4.842   4.572
 3927SOL    HW111916   3.938   4.862   4.656
 3927SOL    HW211917   3.971   4.923   4.521
 3928SOL     OW11918   4.262   4.681   3.885
 3928SOL    HW111919   4.292   4.591   3.903
 3928SOL    HW211920   4.256   4.685   3.790
 3929SOL     OW11921   3.853   4.372   4.272
 3929SOL    HW111922   3.940   4.411   4.263
 3929SOL    HW211923   3.857   4.293   4.217
 3930SOL     OW11924   4.524   3.661   4.297
 3930SOL    HW111925   4.580   3.713   4.354
 3930SOL    HW211926   4.446   3.715   4.284
 3931SOL     OW11927   3.971   4.745   4.975
 3931SOL    HW111928   4.034   4.801   5.020
 3931SOL    HW211929   3.931   4.801   4.908
 3932SOL     OW11930   4.343   4.425   3.927
 3932SOL    HW111931   4.404   4.392   3.993
 3932SOL    HW211932   4.278   4.355   3.917
 3933SOL     OW11933   4.747   4.417   4.173
 3933SOL    HW111934   4.776   4.429   4.263
 3933SOL    HW211935   4.812   4.464   4.121
 3934SOL     OW11936   3.797   4.522   4.507
 3934SOL    HW111937   3.708   4.495   4.528
 3934SOL    HW211938   3.820   4.473   4.429
 3935SOL     OW11939   4.553   4.078   3.926
 3935SOL    HW111940   4.590   4.126   3.852
 3935SOL    HW211941   4.620   4.013   3.948
 3936SOL     OW11942   4.246   3.978   4.621
 3936SOL    HW111943   4.301   3.903   4.640
 3936SOL    HW211944   4.163   3.960   4.667
 3937SOL     OW11945   4.000   4.617   3.965
 3937SOL    HW111946   4.030   4.582   4.048
 3937SOL    HW211947   4.077   4.661   3.928
 3938SOL     OW11948   4.103   4.450   4.200
 3938SOL    HW111949   4.174   4.483   4.255
 3938SOL    HW211950   4.119   4.355   4.194
 3939SOL     OW11951   4.375   3.862   3.823
 3939SOL    HW111952   4.364   3.782   3.876
 3939SOL    HW211953   4.389   3.931   3.887
 3940SOL     OW11954   4.644   4.192   4.633
 3940SOL    HW111955   4.567   4.228   4.677
 3940SOL    HW211956   4.622   4.194   4.540
 3941SOL     OW11957   4.288   3.791   4.212
 3941SOL    HW111958   4.297   3.872   4.161
 3941SOL    HW211959   4.254   3.727   4.150
 3942SOL     OW11960   0.109   4.891   3.793
 3942SOL    HW111961   0.191   4.935   3.816
 3942SOL    HW211962   0.084   4.843   3.872
 3943SOL     OW11963   4.000   3.791   3.960
 3943SOL    HW111964   4.069   3.726   3.972
 3943SOL    HW211965   3.982   3.788   3.866
 3944SOL     OW11966   4.707   3.990   4.206
 3944SOL    HW111967   4.793   4.021   4.234
 3944SOL    HW211968   4.712   3.894   4.214
 3945SOL     OW11969   4.209   4.798   4.430
 3945SOL    HW111970   4.136   4.797   4.491
 3945SOL    HW211971   4.237   4.889   4.427
 3946SOL     OW11972   4.699   4.221   3.747
 3946SOL    HW111973   4.753   4.297   3.768
 3946SOL    HW211974   4.739   4.184   3.668
 3947SOL     OW11975   4.597   4.196   4.360
 3947SOL    HW111976   4.592   4.257   4.287
 3947SOL    HW211977   4.618   4.112   4.320
 3948SOL     OW11978   4.724   3.761   4.466
 3948SOL    HW111979   4.809   3.750   4.422
 3948SOL    HW211980   4.719   3.687   4.526
 3949SOL     OW11981   4.314   4.028   4.070
 3949SOL    HW111982   4.401   4.060   4.048
 3949SOL    HW211983   4.254   4.087   4.024
 3950SOL     OW11984   4.449   4.815   4.042
 3950SOL    HW111985   4.431   4.786   4.131
 3950SOL    HW211986   4.376   4.781   3.990
 3951SOL     OW11987   4.131   4.522   4.957
 3951SOL    HW111988   4.076   4.449   4.986
 3951SOL    HW211989   4.074   4.598   4.961
 3952SOL     OW11990   4.011   4.804   4.227
 3952SOL    HW111991   4.007   4.887   4.274
 3952SOL    HW211992   4.081   4.755   4.271
 3953SOL     OW11993   4.330   4.235   4.587
 3953SOL    HW111994   4.263   4.270   4.527
 3953SOL    HW211995   4.305   4.144   4.599
 3954SOL     OW11996   4.346   4.595   4.799
 3954SOL    HW111997   4.357   4.688   4.815
 3954SOL    HW211998   4.271   4.569   4.852
 3955SOL     OW11999   0.073   4.558   4.790
 3955SOL    HW112000   0.158   4.530   4.757
 3955SOL    HW212001   0.054   4.639   4.743
 3956SOL     OW12002   4.989   4.260   3.978
 3956SOL    HW112003   4.945   4.223   4.055
 3956SOL    HW212004   4.981   4.193   3.911
 3957SOL     OW12005   3.997   3.924   4.991
 3957SOL    HW112006   3.903   3.941   4.986
 3957SOL    HW212007   4.032   3.961   4.910
 3958SOL     OW12008   4.449   4.339   4.802
 3958SOL    HW112009   4.420   4.430   4.809
 3958SOL    HW212010   4.398   4.303   4.730
 3959SOL     OW12011   4.049   3.792   4.351
 3959SOL    HW112012   4.027   3.882   4.373
 3959SOL    HW212013   4.134   3.798   4.307
 3960SOL     OW12014   4.778   4.501   4.697
 3960SOL    HW112015   4.837   4.523   4.770
 3960SOL    HW212016   4.707   4.452   4.738
 3961SOL     OW12017   0.254   4.041   3.925
 3961SOL    HW112018   0.333   4.018   3.973
 3961SOL    HW212019   0.259   4.136   3.913
 3962SOL     OW12020   4.044   4.478   4.641
 3962SOL    HW112021   4.109   4.548   4.646
 3962SOL    HW212022   3.970   4.516   4.593
 3963SOL     OW12023   4.032   4.215   4.716
 3963SOL    HW112024   3.953   4.227   4.769
 3963SOL    HW212025   4.059   4.303   4.692
 3964SOL     OW12026   4.862   3.948   0.238
 3964SOL    HW112027   4.850   3.853   0.245
 3964SOL    HW212028   4.906   3.960   0.155
 3965SOL     OW12029   3.720   0.053   3.866
 3965SOL    HW112030   3.741   0.139   3.831
 3965SOL    HW212031   3.639   0.028   3.821
 3966SOL     OW12032   4.734   4.532   0.013
 3966SOL    HW112033   4.759   4.440   0.002
 3966SOL    HW212034   4.670   4.531   0.083
 3967SOL     OW12035   3.804   4.305   4.856
 3967SOL    HW112036   3.856   4.308   4.936
 3967SOL    HW212037   3.824   4.387   4.811
 3968SOL     OW12038   4.522   4.297   4.089
 3968SOL    HW112039   4.607   4.337   4.107
 3968SOL    HW212040   4.542   4.221   4.034
 3969SOL     OW12041   4.384   4.156   5.001
 3969SOL    HW112042   4.314   4.201   5.047
 3969SOL    HW212043   4.410   4.217   4.932
 3970SOL     OW12044   4.165   4.205   3.899
 3970SOL    HW112045   4.081   4.250   3.899
 3970SOL    HW212046   4.158   4.141   3.828
 3971SOL     OW12047   3.825   4.804   0.198
 3971SOL    HW112048   3.895   4.864   0.225
 3971SOL    HW212049   3.857   4.766   0.116
 3972SOL     OW12050   3.864   4.939   4.807
 3972SOL    HW112051   3.908   5.017   4.841
 3972SOL    HW212052   3.775   4.968   4.786
 3973SOL     OW12053   4.001   4.053   4.437
 3973SOL    HW112054   4.035   4.059   4.527
 3973SOL    HW212055   3.908   4.073   4.446
 3974SOL     OW12056   4.565   4.759   0.068
 3974SOL    HW112057   4.604   4.733   0.151
 3974SOL    HW212058   4.612   4.709   0.002
 3975SOL     OW12059   4.684   4.673   4.049
 3975SOL    HW112060   4.649   4.597   4.094
 3975SOL    HW212061   4.609   4.732   4.039
 3976SOL     OW12062   4.780   4.782   4.410
 3976SOL    HW112063   4.712   4.788   4.477
 3976SOL    HW212064   4.775   4.692   4.378
 3977SOL     OW12065   4.736   3.938   4.693
 3977SOL    HW112066   4.709   4.029   4.680
 3977SOL    HW212067   4.727   3.897   4.607
 3978SOL     OW12068   3.779   4.047   3.790
 3978SOL    HW112069   3.866   4.012   3.773
 3978SOL    HW212070   3.794   4.135   3.825
 3979SOL     OW12071   3.815   3.953   4.090
 3979SOL    HW112072   3.893   3.905   4.064
 3979SOL    HW212073   3.765   3.964   4.009
 3980SOL     OW12074   4.327   4.438   4.360
 3980SOL    HW112075   4.383   4.462   4.434
 3980SOL    HW212076   4.370   4.361   4.322
 3981SOL     OW12077   4.541   4.708   4.565
 3981SOL    HW112078   4.511   4.632   4.616
 3981SOL    HW212079   4.522   4.783   4.621
 3982SOL     OW12080   4.790   4.686   3.796
 3982SOL    HW112081   4.773   4.693   3.889
 3982SOL    HW212082   4.732   4.616   3.766
 3983SOL     OW12083   3.752   4.952   4.301
 3983SOL    HW112084   3.832   5.001   4.322
 3983SOL    HW212085   3.737   4.898   4.379
 3984SOL     OW12086   4.150   4.184   4.249
 3984SOL    HW112087   4.219   4.124   4.223
 3984SOL    HW212088   4.101   4.136   4.317
 3985SOL     OW12089   4.729   3.717   4.853
 3985SOL    HW112090   4.683   3.734   4.935
 3985SOL    HW212091   4.728   3.801   4.807
 3986SOL     OW12092   4.598   0.054   4.036
 3986SOL    HW112093   4.672   0.041   3.977
 3986SOL    HW212094   4.532  -0.009   4.007
 3987K        K12095   1.280   1.733   2.976
 3988K        K12096   1.652   2.443   1.205
 3989K        K12097   0.047   2.139   3.714
 3990K        K12098   1.696   2.746   4.971
 3991K        K12099   0.798   3.206   4.056
 3992K        K12100   1.375   4.333   1.488
 3993K        K12101   3.326   2.398   0.998
 3994K        K12102   3.226   4.297   3.273
 3995K        K12103   4.585   1.645   4.060
 3996K        K12104   4.204   2.074   2.191
 3997K        K12105   4.009   3.308   4.354
 3998K        K12106   4.641   3.798   3.307
 3999K        K12107   3.813   4.826   4.042
 4000CL      CL12108   1.493   1.995   0.443
 4001CL      CL12109   1.005   2.603   1.279
 4002CL      CL12110   0.964   2.848   0.357
 4003CL      CL12111   0.341   3.795   0.206
 4004CL      CL12112   3.187   1.615   0.503
 4005CL      CL12113   1.989   0.996   1.729
 4006CL      CL12114   2.930   1.344   2.713
 4007CL      CL12115   3.485   3.489   0.321
 4008CL      CL12116   4.705   1.052   1.702
 4009CL      CL12117   3.961   0.359   4.453
 4010CL      CL12118   4.027   2.052   4.937
   5.00000   5.00000   5.00000
