CLN025
12118
    1TYR      N    1   3.372   1.633   0.326 -0.0047 -0.4058  0.2729
    1TYR     H1    2   3.454   1.677   0.287 -0.3589  0.8262  0.8520
    1TYR     H2    3   3.297   1.649   0.260  0.6854  0.3709 -0.3550
    1TYR     H3    4   3.347   1.684   0.410  1.1936  0.0266  0.3950
    1TYR     CA    5   3.411   1.489   0.343 -0.1526  0.3237 -0.4249
    1TYR     HA    6   3.509   1.477   0.388  1.0302 -0.9221 -3.1158
    1TYR     CB    7   3.321   1.408   0.433  0.4032  0.1783  1.0063
    1TYR    HB1    8   3.219   1.428   0.402  0.6294  0.3755  0.3690
    1TYR    HB2    9   3.342   1.444   0.534  0.4205 -0.4879  1.2461
    1TYR     CG   10   3.342   1.255   0.433  0.4605 -0.5622 -0.0609
    1TYR    CD1   11   3.438   1.197   0.518  0.0622 -0.1301 -0.1544
    1TYR    HD1   12   3.502   1.260   0.577 -1.7167  1.0024  0.6236
    1TYR    CE1   13   3.462   1.060   0.510  0.3449  0.6310  0.3005
    1TYR    HE1   14   3.539   1.019   0.573  0.9252 -0.9337 -1.3245
    1TYR     CZ   15   3.383   0.977   0.423 -0.0895  0.3800  0.0816
    1TYR     OH   16   3.395   0.840   0.424  0.2129  0.0344  0.0321
    1TYR     HH   17   3.333   0.791   0.369 -0.4429  0.5444  0.3186
    1TYR    CE2   18   3.286   1.033   0.343 -0.4969  0.3323  0.2640
    1TYR    HE2   19   3.233   0.964   0.279  2.6024 -1.2232 -0.8762
    1TYR    CD2   20   3.261   1.171   0.351  0.5809 -0.2083 -0.1043
    1TYR    HD2   21   3.177   1.210   0.296  0.5645  0.9292  0.6821
    1TYR      C   22   3.421   1.432   0.201 -0.5888  0.4997 -0.1843
    1TYR      O   23   3.367   1.487   0.106 -0.2267  0.1228 -0.2195
    2TYR      N   24   3.500   1.322   0.188  0.1687  1.4431  0.2289
    2TYR      H   25   3.550   1.285   0.268 -1.6032 -2.0941 -0.0660
    2TYR     CA   26   3.507   1.250   0.063 -0.0715 -0.9865  0.1844
    2TYR     HA   27   3.414   1.246   0.006  1.5398  0.2767 -2.7060
    2TYR     CB   28   3.606   1.318  -0.029  0.3137 -0.4055 -0.8926
    2TYR    HB1   29   3.695   1.341   0.029  0.5290  0.9539 -1.7290
    2TYR    HB2   30   3.575   1.418  -0.056 -1.6273 -0.5608  0.5200
    2TYR     CG   31   3.648   1.241  -0.156  0.1840 -1.1919 -0.8219
    2TYR    CD1   32   3.561   1.241  -0.266  0.1538  0.4562  0.1929
    2TYR    HD1   33   3.467   1.295  -0.268  0.5916  1.2121 -1.5710
    2TYR    CE1   34   3.603   1.177  -0.388 -0.3182 -0.0728  0.2952
    2TYR    HE1   35   3.544   1.188  -0.478 -2.2493  2.1940  1.7124
    2TYR     CZ   36   3.724   1.112  -0.395  0.1738 -0.6063  0.0848
    2TYR     OH   37   3.756   1.048  -0.515 -0.0584  0.5160 -0.4637
    2TYR     HH   38   3.840   1.005  -0.500 -0.7994 -0.8893 -0.1196
    2TYR    CE2   39   3.800   1.106  -0.275  0.1643  0.2385 -0.1516
    2TYR    HE2   40   3.893   1.052  -0.275 -0.6866 -1.3908 -2.5368
    2TYR    CD2   41   3.765   1.172  -0.159 -0.1538 -0.0057 -0.0005
    2TYR    HD2   42   3.828   1.161  -0.073  0.2533  1.2273 -0.1342
    2TYR      C   43   3.558   1.108   0.098  0.0556 -0.1145 -0.3144
    2TYR      O   44   3.646   1.081   0.182  0.0090 -0.5827  0.0977
    3ASP      N   45   3.519   1.009   0.017  0.1426  0.6641 -0.3392
    3ASP      H   46   3.438   1.024  -0.043 -1.2675 -1.6971  0.8176
    3ASP     CA   47   3.564   0.863   0.013  0.0589 -0.4716  0.1909
    3ASP     HA   48   3.627   0.838   0.098 -1.0836 -4.3037  0.0938
    3ASP     CB   49   3.439   0.780   0.046  0.1686  0.1822  0.3078
    3ASP    HB1   50   3.360   0.814  -0.021 -0.9328 -1.5920  0.6517
    3ASP    HB2   51   3.406   0.816   0.144 -0.6679  1.9660 -0.5777
    3ASP     CG   52   3.449   0.630   0.036  1.2374  0.3672 -0.8217
    3ASP    OD1   53   3.342   0.564   0.040 -0.3449 -0.7894  0.2729
    3ASP    OD2   54   3.564   0.579   0.034 -0.5044 -0.3560 -0.2772
    3ASP      C   55   3.626   0.829  -0.128  0.9508  0.2502  0.0071
    3ASP      O   56   3.552   0.838  -0.226 -0.0946  0.4655 -0.0583
    4PRO      N   57   3.749   0.788  -0.128  0.3679 -0.3102  0.2548
    4PRO     CD   58   3.843   0.793  -0.021  0.4669 -0.2121  0.6638
    4PRO    HD1   59   3.844   0.703   0.041  2.2202  0.2723  1.3751
    4PRO    HD2   60   3.831   0.887   0.033 -0.2532 -0.0483  0.2393
    4PRO     CG   61   3.982   0.806  -0.082  0.1413 -0.5060  0.7314
    4PRO    HG1   62   4.052   0.757  -0.015  0.1141 -0.4257  0.8200
    4PRO    HG2   63   4.003   0.913  -0.092  0.8622 -0.7777 -1.0998
    4PRO     CB   64   3.973   0.761  -0.227  0.0822  0.2739  0.0194
    4PRO    HB1   65   4.012   0.660  -0.228  0.8218  0.5565 -0.1513
    4PRO    HB2   66   4.025   0.826  -0.297  2.3032 -0.5719  0.8067
    4PRO     CA   67   3.817   0.753  -0.253  0.5522 -0.0253 -0.5330
    4PRO     HA   68   3.785   0.820  -0.333 -1.4171  2.0780  1.8431
    4PRO      C   69   3.787   0.621  -0.309  0.2854 -0.4603  0.8441
    4PRO      O   70   3.795   0.613  -0.436 -0.4652  0.6527  0.3003
    5GLU      N   71   3.754   0.517  -0.235 -0.3423  0.5502  0.7157
    5GLU      H   72   3.732   0.529  -0.137 -1.7533  1.1116  0.3543
    5GLU     CA   73   3.719   0.385  -0.291  0.0250 -0.1354  0.2530
    5GLU     HA   74   3.790   0.352  -0.367 -0.8292 -0.7051 -0.3199
    5GLU     CB   75   3.708   0.282  -0.178 -0.9601  0.0242  0.3385
    5GLU    HB1   76   3.674   0.188  -0.221  2.8195 -1.6528  0.6200
    5GLU    HB2   77   3.621   0.316  -0.122 -0.2518  2.1418  0.2231
    5GLU     CG   78   3.836   0.271  -0.079  0.2984  1.2540 -0.0228
    5GLU    HG1   79   3.821   0.197  -0.001 -0.5181  2.7364  1.2921
    5GLU    HG2   80   3.851   0.367  -0.029 -1.8550  1.2520  0.7193
    5GLU     CD   81   3.959   0.223  -0.158 -0.4999  0.2010 -0.1785
    5GLU    OE1   82   3.952   0.198  -0.281 -0.0697 -0.2694 -0.5862
    5GLU    OE2   83   4.067   0.202  -0.096  0.1536  0.0067 -0.5818
    5GLU      C   84   3.584   0.386  -0.365 -0.0756  0.6070 -0.2010
    5GLU      O   85   3.564   0.294  -0.445  0.9453 -0.4171  0.0677
    6THR      N   86   3.502   0.489  -0.339 -0.5672 -0.0182  0.3761
    6THR      H   87   3.527   0.549  -0.262  2.2826 -1.0855  0.3831
    6THR     CA   88   3.373   0.517  -0.419  0.0356  0.0050  0.1684
    6THR     HA   89   3.351   0.441  -0.495  0.9247 -0.8651  0.7615
    6THR     CB   90   3.257   0.508  -0.312 -0.9017  0.5054  0.5802
    6THR     HB   91   3.159   0.522  -0.356 -2.7190 -1.3894  3.6819
    6THR    CG2   92   3.250   0.372  -0.243 -0.2177  0.6640  0.3796
    6THR   HG21   93   3.350   0.338  -0.216 -0.0508 -0.6858 -1.7030
    6THR   HG22   94   3.189   0.370  -0.153 -1.0821  0.8111 -0.1834
    6THR   HG23   95   3.216   0.299  -0.318  3.4053 -0.9809  0.1460
    6THR    OG1   96   3.278   0.613  -0.218  0.3153 -0.2573 -0.1733
    6THR    HG1   97   3.306   0.582  -0.132  0.5278 -0.0130 -0.1550
    6THR      C   98   3.363   0.644  -0.510 -0.2205 -1.3089 -0.6311
    6THR      O   99   3.280   0.653  -0.597 -0.2603 -0.7293  1.0795
    7GLY      N  100   3.449   0.745  -0.490  0.3215 -0.0167 -0.0876
    7GLY      H  101   3.520   0.724  -0.421  0.0058 -1.8841 -0.2598
    7GLY     CA  102   3.440   0.876  -0.555 -0.1582  0.4926  0.3615
    7GLY    HA1  103   3.442   0.867  -0.663 -0.4971 -1.2821  0.4760
    7GLY    HA2  104   3.516   0.943  -0.516 -1.3812  1.6679  0.8055
    7GLY      C  105   3.306   0.941  -0.515 -0.1460 -0.0804 -0.5514
    7GLY      O  106   3.237   0.994  -0.601 -0.2935 -0.8299  0.3820
    8THR      N  107   3.282   0.957  -0.384 -0.1889 -0.5714  0.3638
    8THR      H  108   3.343   0.912  -0.318 -0.5255  0.9677  1.7810
    8THR     CA  109   3.159   1.023  -0.337 -0.1226 -0.6607  0.0495
    8THR     HA  110   3.109   1.079  -0.417 -2.6984 -0.5128  1.6465
    8THR     CB  111   3.047   0.927  -0.283 -0.6364 -0.1524  0.2895
    8THR     HB  112   2.963   0.986  -0.247 -0.9200 -0.5445  0.2747
    8THR    CG2  113   2.980   0.842  -0.388 -0.4130 -0.4128 -0.2256
    8THR   HG21  114   2.929   0.901  -0.463  0.4790  1.3451  0.5061
    8THR   HG22  115   3.047   0.770  -0.436  0.9412  0.4908  0.2651
    8THR   HG23  116   2.901   0.798  -0.326 -0.6854  0.0551 -0.2405
    8THR    OG1  117   3.089   0.844  -0.179 -0.4207 -0.2111 -0.2128
    8THR    HG1  118   3.157   0.783  -0.210 -0.4308 -0.9020  1.0653
    8THR      C  119   3.197   1.119  -0.236 -0.3514 -0.0327 -0.1683
    8THR      O  120   3.267   1.082  -0.142  0.2169  0.2198  0.0659
    9TRP      N  121   3.152   1.251  -0.246 -0.1923 -0.2482  0.1095
    9TRP      H  122   3.103   1.275  -0.331  0.1572 -0.4496 -0.1545
    9TRP     CA  123   3.198   1.368  -0.174 -0.6481 -1.2487 -0.5704
    9TRP     HA  124   3.277   1.341  -0.104 -1.6292 -1.9359  0.3143
    9TRP     CB  125   3.255   1.472  -0.279  0.8406 -0.7979 -0.2136
    9TRP    HB1  126   3.168   1.506  -0.335  2.0349  3.6428  0.2599
    9TRP    HB2  127   3.326   1.434  -0.353  2.4329  2.1908 -0.3874
    9TRP     CG  128   3.326   1.598  -0.226  0.3216  0.2723  0.4511
    9TRP    CD1  129   3.459   1.614  -0.209  1.4580  0.7669 -0.1051
    9TRP    HD1  130   3.531   1.536  -0.230 -0.9191 -2.0684  1.4261
    9TRP    NE1  131   3.481   1.738  -0.166 -0.9302 -0.1248  0.3269
    9TRP    HE1  132   3.571   1.771  -0.134 -0.3631 -0.8190 -0.4966
    9TRP    CE2  133   3.372   1.821  -0.177  0.0532  0.2961 -0.1704
    9TRP    CZ2  134   3.360   1.952  -0.162 -0.4302  0.5061  0.2418
    9TRP    HZ2  135   3.447   2.012  -0.142 -1.5748  1.9899  0.9656
    9TRP    CH2  136   3.229   2.000  -0.152  0.0356  0.3415  0.2236
    9TRP    HH2  137   3.210   2.106  -0.145  1.8188  0.8925 -2.0077
    9TRP    CZ3  138   3.119   1.916  -0.154  0.2160  0.9491  0.7762
    9TRP    HZ3  139   3.021   1.961  -0.147 -0.1369  0.6775 -1.5956
    9TRP    CE3  140   3.135   1.774  -0.182 -0.1683  0.0167  0.4554
    9TRP    HE3  141   3.048   1.712  -0.190 -2.4594  3.0903 -0.6810
    9TRP    CD2  142   3.266   1.726  -0.200 -0.0555 -0.3625 -0.3544
    9TRP      C  143   3.078   1.419  -0.097  0.6609 -0.3778  0.1250
    9TRP      O  144   2.967   1.421  -0.153 -0.1382 -0.2566  0.1139
   10TYR      N  145   3.093   1.482   0.022  0.3987  0.3906 -0.2614
   10TYR      H  146   3.185   1.483   0.062  0.8136  0.6236 -1.1998
   10TYR     CA  147   2.982   1.538   0.108  0.9476  0.1291 -0.2628
   10TYR     HA  148   2.888   1.545   0.052 -0.1735 -2.2098  1.1475
   10TYR     CB  149   2.955   1.429   0.219 -0.2246  0.5774  0.0450
   10TYR    HB1  150   2.891   1.472   0.295  0.5312  1.6534  0.0839
   10TYR    HB2  151   3.052   1.403   0.261  1.1099 -2.8364 -4.3434
   10TYR     CG  152   2.908   1.292   0.178  0.2016  1.0480  0.3698
   10TYR    CD1  153   2.776   1.257   0.214 -0.0394 -0.6073 -0.0725
   10TYR    HD1  154   2.708   1.331   0.255 -0.0043 -0.6765  0.1132
   10TYR    CE1  155   2.729   1.123   0.209  0.2051  0.0049 -0.2846
   10TYR    HE1  156   2.626   1.097   0.227 -0.1744  1.0942 -0.7467
   10TYR     CZ  157   2.809   1.027   0.152 -0.8852  0.2880 -0.2052
   10TYR     OH  158   2.760   0.906   0.116  0.2155 -0.3054 -0.9831
   10TYR     HH  159   2.821   0.850   0.067  1.1044  0.6296 -0.9804
   10TYR    CE2  160   2.946   1.064   0.112 -0.4630  0.3217  0.2742
   10TYR    HE2  161   3.004   0.991   0.056  0.3061  1.0782  0.0710
   10TYR    CD2  162   2.991   1.200   0.120  0.2334  0.6372 -0.5464
   10TYR    HD2  163   3.085   1.224   0.073 -1.1682  1.4754 -3.1071
   10TYR      C  164   3.020   1.672   0.178  0.0158  0.6217 -1.0749
   10TYR    OC1  165   2.981   1.777   0.127  0.7188 -0.2525  0.0721
   10TYR    OC2  166   3.089   1.668   0.280  0.0411  0.1070 -0.2687
   11SOL     OW  167   2.584   4.999   4.671  0.2446  0.8144 -0.0633
   11SOL    HW1  168   2.536   4.991   4.589  0.0744  0.6619  0.0511
   11SOL    HW2  169   2.675   4.981   4.647 -0.0127 -0.8378  0.0538
   12SOL     OW  170   4.275   4.595   4.852 -0.1579  0.1870 -0.1690
   12SOL    HW1  171   4.306   4.662   4.913 -0.2882  0.2705 -0.1942
   12SOL    HW2  172   4.354   4.554   4.819 -0.1105 -0.7524  1.0586
   13SOL     OW  173   3.631   1.566   0.529 -1.0452 -0.0470 -0.1767
   13SOL    HW1  174   3.577   1.609   0.595 -0.8609  0.3704 -0.2957
   13SOL    HW2  175   3.718   1.605   0.540 -0.7968 -0.6140 -0.0777
   14SOL     OW  176   4.957   0.056   1.135  1.1300  0.7911 -0.4238
   14SOL    HW1  177   4.952   0.141   1.092 -1.3135  1.6629  1.3194
   14SOL    HW2  178   5.047   0.049   1.167  1.0143  3.4749  0.7078
   15SOL     OW  179   0.517   3.312   3.868 -0.8217 -0.4018 -0.2840
   15SOL    HW1  180   0.451   3.267   3.814 -1.6354  1.3069 -0.7842
   15SOL    HW2  181   0.541   3.248   3.935  0.0009 -2.5139 -2.4441
   16SOL     OW  182   3.949   2.984   2.324 -0.5701  0.3330 -0.7903
   16SOL    HW1  183   4.021   2.927   2.300 -0.5052 -0.0976  0.3895
   16SOL    HW2  184   3.917   3.019   2.241 -0.9733 -1.8521 -1.6185
   17SOL     OW  185   4.696   4.269   1.201  0.0276 -0.0243  0.1757
   17SOL    HW1  186   4.749   4.189   1.211 -0.4749 -0.7450 -2.4093
   17SOL    HW2  187   4.607   4.237   1.190 -0.2545  0.9455 -0.3635
   18SOL     OW  188   2.748   1.208   3.310  0.3500 -0.3413 -0.0039
   18SOL    HW1  189   2.710   1.140   3.255 -0.7985  0.1928  0.1064
   18SOL    HW2  190   2.675   1.241   3.362  0.6818  1.5029 -0.6031
   19SOL     OW  191   4.969   2.719   2.216 -0.4121  0.1658  0.0468
   19SOL    HW1  192   4.989   2.667   2.294 -1.8091 -1.4620 -0.6283
   19SOL    HW2  193   4.983   2.809   2.244 -0.3893 -0.3956  2.0391
   20SOL     OW  194   3.686   3.178   2.613 -0.7826  0.0965 -0.4740
   20SOL    HW1  195   3.648   3.116   2.551  0.7282 -1.4791  0.0839
   20SOL    HW2  196   3.777   3.151   2.621 -0.6511  0.9568  1.5622
   21SOL     OW  197   1.188   0.317   2.747  0.6721  0.0507  0.6345
   21SOL    HW1  198   1.207   0.402   2.785 -0.1780 -0.0364  1.2911
   21SOL    HW2  199   1.237   0.255   2.801 -1.1102 -0.1425  2.1108
   22SOL     OW  200   4.100   3.349   3.640  0.2048  0.1971 -0.2012
   22SOL    HW1  201   4.048   3.408   3.694  0.8181  1.3143 -0.7846
   22SOL    HW2  202   4.181   3.397   3.624  0.1126 -0.1710 -1.9485
   23SOL     OW  203   4.472   1.331   1.310  0.4639  0.8704 -0.5178
   23SOL    HW1  204   4.450   1.238   1.307  1.6553  0.5457  0.0759
   23SOL    HW2  205   4.392   1.376   1.283 -0.2856 -0.3079 -0.3216
   24SOL     OW  206   2.189   1.451   4.289 -0.1254 -0.3923  0.1802
   24SOL    HW1  207   2.224   1.371   4.329  0.6228 -0.3997 -0.4695
   24SOL    HW2  208   2.098   1.430   4.270 -0.0026 -1.0083  0.2350
   25SOL     OW  209   1.355   3.697   1.627 -0.1905  0.5906 -0.4875
   25SOL    HW1  210   1.419   3.728   1.562 -0.9638  0.4231 -1.3612
   25SOL    HW2  211   1.406   3.678   1.705  1.1568 -1.5305 -1.8062
   26SOL     OW  212   3.718   1.430   3.203 -0.2831  0.0352 -0.2082
   26SOL    HW1  213   3.747   1.396   3.118 -0.3158  0.1492 -0.2653
   26SOL    HW2  214   3.779   1.502   3.223  1.3846 -1.6487  1.1116
   27SOL     OW  215   0.172   2.392   0.785 -0.1487 -0.0483  0.2809
   27SOL    HW1  216   0.094   2.344   0.760  0.1601  0.4049 -1.7661
   27SOL    HW2  217   0.240   2.325   0.797 -0.0940 -0.2545 -1.0617
   28SOL     OW  218   2.189   1.962   4.858  0.2707 -0.4385  0.2888
   28SOL    HW1  219   2.224   1.875   4.841  0.1839 -0.6016  0.9276
   28SOL    HW2  220   2.209   1.979   4.950  0.7843  0.4443  0.0318
   29SOL     OW  221   1.444   1.880   2.341 -0.1667  0.9056 -0.0073
   29SOL    HW1  222   1.377   1.857   2.276  0.5311  1.2410 -0.8623
   29SOL    HW2  223   1.443   1.976   2.343  1.2140  0.9823 -1.0610
   30SOL     OW  224   4.680   4.228   0.429 -0.2693 -0.2197  0.9248
   30SOL    HW1  225   4.720   4.156   0.380 -1.4665 -0.6431  0.5471
   30SOL    HW2  226   4.675   4.300   0.367 -1.5030 -0.6604  0.4800
   31SOL     OW  227   3.621   3.008   2.415 -0.3828 -0.3064 -0.1264
   31SOL    HW1  228   3.532   3.040   2.398 -0.1879  0.3612  0.0464
   31SOL    HW2  229   3.672   3.038   2.340 -0.5430 -1.7696 -0.8433
   32SOL     OW  230   3.684   1.276   0.986  0.6609  0.5026 -0.0217
   32SOL    HW1  231   3.619   1.295   0.919 -0.7084  1.8757  1.6135
   32SOL    HW2  232   3.750   1.345   0.977  0.3186  0.8639  0.2234
   33SOL     OW  233   1.372   1.840   3.207  0.4117 -0.0696 -0.2732
   33SOL    HW1  234   1.405   1.762   3.163 -0.8962  0.3099 -2.0129
   33SOL    HW2  235   1.345   1.899   3.137  1.2058  1.9238  0.9861
   34SOL     OW  236   1.637   2.471   0.215  0.1401  0.5804  0.3714
   34SOL    HW1  237   1.591   2.538   0.166 -2.4490 -0.0213  1.7923
   34SOL    HW2  238   1.670   2.516   0.292 -1.3840  0.3497  1.2015
   35SOL     OW  239   2.257   0.463   3.686  0.9435 -0.9160 -0.1494
   35SOL    HW1  240   2.187   0.528   3.694 -0.4650 -2.3290 -0.5898
   35SOL    HW2  241   2.306   0.489   3.608 -0.3164 -1.0024 -1.0006
   36SOL     OW  242   1.803   0.350   3.833  0.7134 -0.5718 -0.9675
   36SOL    HW1  243   1.788   0.275   3.890 -0.0850 -0.9162 -1.6042
   36SOL    HW2  244   1.866   0.404   3.880  1.1066 -1.5136 -0.3838
   37SOL     OW  245   3.755   3.876   1.014  0.3225  0.0531  0.2409
   37SOL    HW1  246   3.851   3.876   1.015  0.3508  1.4347 -0.2791
   37SOL    HW2  247   3.730   3.878   1.106  0.7943 -0.1107  0.3757
   38SOL     OW  248   3.401   2.039   4.400 -0.1322  0.3798 -0.2117
   38SOL    HW1  249   3.322   2.028   4.453  0.0931  2.8098  0.7673
   38SOL    HW2  250   3.461   1.972   4.432 -1.2820 -0.6050 -0.0270
   39SOL     OW  251   1.167   4.170   3.106  0.5094 -0.0910  0.6345
   39SOL    HW1  252   1.134   4.163   3.195 -1.1555  4.9368  0.7241
   39SOL    HW2  253   1.259   4.195   3.116  0.0326  1.6219  1.1200
   40SOL     OW  254   1.642   1.462   1.632  0.0231  0.4131  0.7113
   40SOL    HW1  255   1.591   1.476   1.552  0.4934  1.8032  0.6119
   40SOL    HW2  256   1.733   1.479   1.606  0.1444  1.2804  1.5935
   41SOL     OW  257   4.239   1.659   3.346 -0.0414 -0.7333  0.3120
   41SOL    HW1  258   4.316   1.659   3.403  1.4394 -1.4383 -1.5681
   41SOL    HW2  259   4.253   1.734   3.287 -0.1496 -1.5723 -0.8115
   42SOL     OW  260   0.958   0.225   2.810 -0.6752 -0.3643 -0.6400
   42SOL    HW1  261   0.911   0.210   2.728 -0.8931 -0.7113 -0.4503
   42SOL    HW2  262   1.041   0.265   2.783 -0.0289 -1.9684 -1.1585
   43SOL     OW  263   3.430   1.247   1.517 -0.1382  0.0165 -0.0524
   43SOL    HW1  264   3.351   1.242   1.463 -0.3718  0.3658  0.2514
   43SOL    HW2  265   3.450   1.155   1.539  0.6579 -0.2374 -1.7109
   44SOL     OW  266   3.748   3.438   2.878 -0.4665  0.5254  0.1835
   44SOL    HW1  267   3.719   3.457   2.789 -0.1477 -0.5978 -0.1793
   44SOL    HW2  268   3.689   3.489   2.934 -1.2238  0.5803 -0.6364
   45SOL     OW  269   1.762   2.300   2.274  0.0070 -0.6580 -0.4914
   45SOL    HW1  270   1.667   2.288   2.263 -0.2703  0.0416  0.8416
   45SOL    HW2  271   1.775   2.394   2.265  0.8272 -0.8988 -2.1699
   46SOL     OW  272   0.329   3.426   1.942 -0.1373  0.3819  0.4295
   46SOL    HW1  273   0.266   3.358   1.964 -2.5630  3.0206  2.3586
   46SOL    HW2  274   0.367   3.452   2.026  1.3930  0.8560 -0.3690
   47SOL     OW  275   0.595   4.794   1.951 -0.0103  0.1488 -0.0047
   47SOL    HW1  276   0.603   4.711   1.905  0.1490  0.5236 -0.6694
   47SOL    HW2  277   0.501   4.812   1.952  0.0498  0.6336 -1.1141
   48SOL     OW  278   4.114   1.794   2.572 -0.4938 -0.1063  0.0632
   48SOL    HW1  279   4.133   1.700   2.565  0.0659  0.0056 -0.0225
   48SOL    HW2  280   4.175   1.835   2.509  0.3793  0.4355  1.2210
   49SOL     OW  281   1.863   2.523   1.975 -0.5704 -0.1640  0.1770
   49SOL    HW1  282   1.883   2.430   1.975  2.2965  0.3755  0.5714
   49SOL    HW2  283   1.948   2.566   1.970 -1.7837  2.4525  0.5345
   50SOL     OW  284   3.650   1.338   1.396 -0.0679 -0.4218  0.0368
   50SOL    HW1  285   3.572   1.293   1.428 -0.0722 -0.7082 -0.3707
   50SOL    HW2  286   3.617   1.411   1.344 -0.0882 -1.3711 -1.3228
   51SOL     OW  287   2.453   4.940   4.425 -0.1249 -0.5116 -0.6920
   51SOL    HW1  288   2.529   4.909   4.375 -0.5245  1.0584 -2.3682
   51SOL    HW2  289   2.420   5.015   4.375 -1.6333  0.0434  1.0202
   52SOL     OW  290   1.969   2.441   1.120  0.5124  0.2634 -0.3223
   52SOL    HW1  291   2.025   2.487   1.183 -1.2707  0.2669  1.3745
   52SOL    HW2  292   1.944   2.508   1.056 -1.1867  1.5128  1.5081
   53SOL     OW  293   2.603   2.704   3.758 -0.2886 -0.4824  0.0024
   53SOL    HW1  294   2.693   2.682   3.780 -0.5495 -1.3699  0.2244
   53SOL    HW2  295   2.589   2.666   3.671 -0.3280 -0.0002 -0.2039
   54SOL     OW  296   3.022   0.278   1.261  0.6107 -0.8823  0.1506
   54SOL    HW1  297   2.956   0.314   1.321  2.1126  0.4498  1.0919
   54SOL    HW2  298   3.005   0.324   1.178 -0.2133 -1.2415  0.1101
   55SOL     OW  299   1.983   4.259   3.846  0.1102  0.3028 -0.3835
   55SOL    HW1  300   1.895   4.270   3.882  1.4053  3.1266  2.4107
   55SOL    HW2  301   1.994   4.333   3.786  1.1524  1.0249  0.6702
   56SOL     OW  302   4.318   4.767   2.912  0.6368 -0.2901 -0.2224
   56SOL    HW1  303   4.318   4.840   2.851  0.3829  0.4822  0.6772
   56SOL    HW2  304   4.336   4.690   2.858 -0.9258  0.1832 -1.4744
   57SOL     OW  305   4.193   2.865   0.227  0.2070 -0.2824  0.5484
   57SOL    HW1  306   4.123   2.816   0.185  0.1625 -0.2261  0.5558
   57SOL    HW2  307   4.257   2.799   0.253  0.0395 -0.3593  0.7655
   58SOL     OW  308   0.422   3.077   3.352  0.1997 -0.3203 -0.3191
   58SOL    HW1  309   0.457   3.137   3.419  0.8205  0.4560 -1.3012
   58SOL    HW2  310   0.465   2.994   3.369 -0.1862 -0.3246  0.6799
   59SOL     OW  311   4.289   1.548   4.385  0.5007  0.2230  0.0962
   59SOL    HW1  312   4.264   1.582   4.299 -0.8398  2.1259  1.1834
   59SOL    HW2  313   4.385   1.539   4.380  0.6191  1.7097 -1.1143
   60SOL     OW  314   5.016   3.098   0.049 -0.0711 -0.0291 -0.1508
   60SOL    HW1  315   4.961   3.053  -0.015 -1.0341 -0.7513  1.1282
   60SOL    HW2  316   4.958   3.114   0.123  1.2963 -0.3136  1.0293
   61SOL     OW  317   4.810   0.955   4.635  0.4106  0.3070  0.2401
   61SOL    HW1  318   4.821   0.902   4.557 -1.4036 -1.1598  0.9022
   61SOL    HW2  319   4.804   1.045   4.603 -0.3096 -0.2657 -1.3061
   62SOL     OW  320   1.597   3.634   1.179  0.3617  0.3445 -0.0741
   62SOL    HW1  321   1.522   3.619   1.121 -0.6448  2.2028  0.6426
   62SOL    HW2  322   1.673   3.638   1.120 -0.7652  3.4009 -1.5338
   63SOL     OW  323   1.688   1.751   0.330  0.2347 -0.3332 -0.6344
   63SOL    HW1  324   1.649   1.727   0.245 -0.1788  1.4517 -0.9864
   63SOL    HW2  325   1.764   1.803   0.307 -0.3472  0.8651  0.0722
   64SOL     OW  326   2.977   0.198   0.895 -0.5865 -0.0627  0.0018
   64SOL    HW1  327   3.022   0.119   0.924 -0.0624  0.2396  0.0293
   64SOL    HW2  328   3.046   0.252   0.856 -1.1976 -0.2870 -1.4653
   65SOL     OW  329   0.080   0.213   2.814 -0.4804  0.1027  0.4561
   65SOL    HW1  330   0.007   0.273   2.829 -1.0534 -0.4301 -0.1270
   65SOL    HW2  331   0.056   0.133   2.861 -0.6946 -0.3793 -0.4383
   66SOL     OW  332   3.748   3.587   3.300 -0.3632 -0.1750  0.2426
   66SOL    HW1  333   3.721   3.578   3.391  1.2365  1.3683  0.9148
   66SOL    HW2  334   3.836   3.550   3.297 -1.2262 -2.3145 -1.2314
   67SOL     OW  335   4.071   0.307   3.764 -0.1145  0.4253 -0.0607
   67SOL    HW1  336   4.143   0.257   3.802 -1.8527 -1.3488  1.0682
   67SOL    HW2  337   4.024   0.244   3.709 -0.5044  1.6917 -1.2341
   68SOL     OW  338   2.373   3.055   4.701 -0.8648  0.7955  0.2610
   68SOL    HW1  339   2.380   3.013   4.615 -3.3685 -0.7295  0.6750
   68SOL    HW2  340   2.364   2.981   4.762  0.1245  1.8649  1.7522
   69SOL     OW  341   0.173   4.751   1.600 -0.1421 -0.1092 -0.0105
   69SOL    HW1  342   0.235   4.738   1.672 -2.4637  1.1016  2.3554
   69SOL    HW2  343   0.127   4.667   1.593  1.0749 -0.7180 -1.1750
   70SOL     OW  344   3.315   0.327   0.148  0.3721  0.4055  0.3924
   70SOL    HW1  345   3.400   0.317   0.191 -0.1284 -0.2443  1.2871
   70SOL    HW2  346   3.322   0.408   0.098  1.4700  0.4291  0.5653
   71SOL     OW  347   4.839   1.495   3.095  0.1746  0.1020 -0.8922
   71SOL    HW1  348   4.828   1.586   3.066  1.4552  0.9342  1.0307
   71SOL    HW2  349   4.766   1.481   3.156  0.9092  0.4429  0.0937
   72SOL     OW  350   0.442   0.477   1.033 -0.4800  0.0340  0.5153
   72SOL    HW1  351   0.484   0.440   1.111  1.4594 -2.1659 -1.4114
   72SOL    HW2  352   0.352   0.444   1.037 -0.3500 -0.2493  1.6739
   73SOL     OW  353   0.035   3.544   4.744 -0.5288  0.3040  0.4690
   73SOL    HW1  354  -0.015   3.462   4.745 -1.4222  0.8387  0.2269
   73SOL    HW2  355   0.065   3.552   4.653  0.3556 -0.2116  0.6975
   74SOL     OW  356   1.470   2.280   2.554 -0.7070  0.1492 -0.3063
   74SOL    HW1  357   1.554   2.237   2.566 -0.1464  1.8217  2.9444
   74SOL    HW2  358   1.461   2.290   2.460  2.5729 -0.3495 -0.7829
   75SOL     OW  359   4.147   4.403   1.617  0.3672  0.7524 -0.7873
   75SOL    HW1  360   4.128   4.310   1.623 -0.7493  0.9803 -0.6459
   75SOL    HW2  361   4.224   4.408   1.561  1.2465 -0.3347  0.2609
   76SOL     OW  362   5.028   4.448   1.638  0.2369 -0.2551 -0.8183
   76SOL    HW1  363   4.954   4.448   1.577  0.3588 -1.0698 -0.9816
   76SOL    HW2  364   4.994   4.407   1.718 -1.0921  4.1424  1.2235
   77SOL     OW  365   3.049   4.024   3.551  0.0309 -0.0777  0.5984
   77SOL    HW1  366   3.116   3.975   3.599  0.4377 -0.0121  0.1014
   77SOL    HW2  367   3.059   4.114   3.581 -0.8509 -0.3075  1.6661
   78SOL     OW  368   2.637   1.321   4.951 -1.0034 -0.2315 -0.1256
   78SOL    HW1  369   2.710   1.290   5.004  0.7154  0.0019 -2.2467
   78SOL    HW2  370   2.653   1.415   4.940 -0.7526 -0.4355 -1.8142
   79SOL     OW  371   1.982   4.750   0.270 -0.1563 -0.0968 -0.8122
   79SOL    HW1  372   1.975   4.675   0.211 -1.1111  0.6917 -1.7512
   79SOL    HW2  373   1.980   4.826   0.212  0.1219  0.6716  0.1632
   80SOL     OW  374   3.587   1.776   0.752 -0.3225 -0.0581 -0.3746
   80SOL    HW1  375   3.682   1.766   0.756 -0.1383  1.1446 -1.0599
   80SOL    HW2  376   3.570   1.855   0.803 -0.8182  0.3439 -1.1339
   81SOL     OW  377   0.751   3.732   2.171 -0.1103 -0.2087  0.4384
   81SOL    HW1  378   0.664   3.704   2.199 -0.1512  0.0777  0.6097
   81SOL    HW2  379   0.734   3.800   2.106 -0.0228  0.5020  1.1424
   82SOL     OW  380   3.819   2.167   0.674  1.4160  0.0439  0.4197
   82SOL    HW1  381   3.801   2.242   0.617 -0.2291 -1.3268 -0.9512
   82SOL    HW2  382   3.783   2.092   0.628 -1.0397 -1.0376  3.7305
   83SOL     OW  383   4.550   1.616   3.147  0.0445 -0.6190 -0.1740
   83SOL    HW1  384   4.536   1.540   3.091 -1.8222  0.7079 -1.6542
   83SOL    HW2  385   4.498   1.685   3.106  2.7575  1.8770  0.2714
   84SOL     OW  386   3.491   2.908   1.738 -0.2922 -0.1762 -0.0201
   84SOL    HW1  387   3.418   2.905   1.676  0.4662 -1.9023 -0.9095
   84SOL    HW2  388   3.487   2.825   1.784  1.7030 -0.7851 -0.8491
   85SOL     OW  389   2.665   4.856   0.305  0.1371 -0.1297  0.9178
   85SOL    HW1  390   2.753   4.884   0.330  0.0990  0.8457  0.0421
   85SOL    HW2  391   2.678   4.807   0.224 -0.1954  0.7243  0.3372
   86SOL     OW  392   4.896   2.833   4.008 -0.3089  0.3856 -0.1522
   86SOL    HW1  393   4.869   2.922   3.983 -0.7532  0.1943 -0.3607
   86SOL    HW2  394   4.857   2.820   4.094 -0.8270  0.1399 -0.4183
   87SOL     OW  395   3.176   3.580   1.250  0.1601 -0.6252  0.2853
   87SOL    HW1  396   3.141   3.665   1.224  0.7959 -0.9116 -1.7014
   87SOL    HW2  397   3.124   3.554   1.326 -0.1936  1.4185  0.8003
   88SOL     OW  398   1.382   3.106   2.616  0.3674 -0.0622  0.1070
   88SOL    HW1  399   1.307   3.079   2.563  0.6098 -0.1273 -0.2046
   88SOL    HW2  400   1.427   3.024   2.637  0.4451 -0.0082  0.1511
   89SOL     OW  401   0.479   1.829   1.078 -0.0128  0.7442  0.0153
   89SOL    HW1  402   0.554   1.796   1.029  0.1529  2.1382 -0.7297
   89SOL    HW2  403   0.463   1.763   1.145  3.0263  1.2174  1.3658
   90SOL     OW  404   2.854   3.964   3.735  0.4717  0.1150 -0.4116
   90SOL    HW1  405   2.878   4.028   3.668 -0.5598  1.7964  0.7467
   90SOL    HW2  406   2.927   3.966   3.797  1.1300 -0.9710 -1.1228
   91SOL     OW  407   2.554   3.495   0.885  0.3332  0.0364  0.0236
   91SOL    HW1  408   2.586   3.416   0.841  1.7925  0.1080  0.8855
   91SOL    HW2  409   2.620   3.513   0.952 -0.5221  1.3939  0.5344
   92SOL     OW  410   2.609   2.586   1.225  0.3088 -0.1610  0.3764
   92SOL    HW1  411   2.666   2.510   1.234  1.4475  0.4177 -1.5499
   92SOL    HW2  412   2.548   2.562   1.155 -0.1720  0.2195  0.6560
   93SOL     OW  413   0.367   4.330   2.516  0.6366 -0.3637  0.0954
   93SOL    HW1  414   0.275   4.307   2.526  0.8260 -0.4020  2.2629
   93SOL    HW2  415   0.404   4.260   2.462 -0.4049 -0.8824  0.0442
   94SOL     OW  416   4.463   4.940   0.455 -0.4415 -0.3524  0.5401
   94SOL    HW1  417   4.518   5.001   0.505 -1.0997  0.1351  0.6708
   94SOL    HW2  418   4.506   4.855   0.467 -0.1084 -0.0976  1.2174
   95SOL     OW  419   1.575   0.716   3.425  0.2916  0.3287  0.0776
   95SOL    HW1  420   1.553   0.626   3.449  1.3291  0.0173 -0.1196
   95SOL    HW2  421   1.631   0.708   3.348 -0.1907  1.1790 -0.3711
   96SOL     OW  422   2.211   4.605   3.941 -0.1980 -0.5811  0.1742
   96SOL    HW1  423   2.241   4.532   3.995  0.5074  1.0291  2.0617
   96SOL    HW2  424   2.281   4.619   3.878 -0.7608 -2.0851 -0.8680
   97SOL     OW  425   1.804   3.948   3.757  0.1723  0.0851 -0.0095
   97SOL    HW1  426   1.799   4.042   3.737 -1.4931  0.5797  2.3367
   97SOL    HW2  427   1.736   3.908   3.704  1.2606  0.0772 -1.4462
   98SOL     OW  428   4.136   4.433   2.417  0.2759  0.1170 -0.9701
   98SOL    HW1  429   4.069   4.375   2.456  0.8854 -0.5691 -0.9207
   98SOL    HW2  430   4.215   4.414   2.466  0.3741  1.3925 -0.6128
   99SOL     OW  431   1.839   1.148   4.008  0.9985 -0.2618 -0.3523
   99SOL    HW1  432   1.933   1.164   4.022  0.8589 -0.9462  1.6055
   99SOL    HW2  433   1.803   1.138   4.096 -1.2411  1.6202 -0.9588
  100SOL     OW  434   4.936   0.814   0.546  0.1618  0.0044  0.3641
  100SOL    HW1  435   4.878   0.783   0.476  2.9155  0.2082 -2.1961
  100SOL    HW2  436   4.878   0.859   0.607 -2.5875 -1.4390 -1.0191
  101SOL     OW  437   0.780   0.818   1.542 -0.1097 -0.2242 -0.5109
  101SOL    HW1  438   0.826   0.764   1.478  0.6700  0.7912 -0.8219
  101SOL    HW2  439   0.689   0.821   1.511 -1.0542 -3.9750  1.1964
  102SOL     OW  440   3.952   2.424   0.893 -1.2828 -0.4240  0.2177
  102SOL    HW1  441   3.889   2.485   0.931  1.2126  1.1830  2.0701
  102SOL    HW2  442   3.976   2.367   0.966  0.2270 -0.2429 -0.1149
  103SOL     OW  443   2.590   0.176   1.242 -0.3571  0.0776  0.4102
  103SOL    HW1  444   2.642   0.167   1.162 -2.3265 -1.5369 -0.7756
  103SOL    HW2  445   2.515   0.230   1.216 -3.6375 -4.2648 -0.4567
  104SOL     OW  446   1.491   0.408   1.575 -1.1027  0.9892  0.5971
  104SOL    HW1  447   1.517   0.376   1.488 -0.3441  1.9867  0.4421
  104SOL    HW2  448   1.571   0.404   1.627 -1.5490  0.4394  1.2516
  105SOL     OW  449   1.140   0.579   4.813 -0.3253 -0.2422  0.5725
  105SOL    HW1  450   1.217   0.530   4.841  0.5264  0.9572  0.4118
  105SOL    HW2  451   1.167   0.671   4.818 -1.3769  0.1552 -0.5853
  106SOL     OW  452   2.364   3.518   3.037  0.3559  0.0146  0.6813
  106SOL    HW1  453   2.436   3.464   3.068 -0.5087 -0.9419  1.0845
  106SOL    HW2  454   2.350   3.581   3.108  0.2809 -0.3098  0.9584
  107SOL     OW  455   4.414   2.776   1.833  0.0835  0.1193 -0.3851
  107SOL    HW1  456   4.494   2.751   1.789 -1.1927 -1.2765 -2.0640
  107SOL    HW2  457   4.350   2.787   1.763 -1.5259 -0.1593  0.9701
  108SOL     OW  458   2.989   1.929   0.626 -0.0785  0.1102 -0.2306
  108SOL    HW1  459   3.052   1.888   0.566  0.8313  0.7527  0.2627
  108SOL    HW2  460   2.904   1.897   0.596  0.5967 -2.9778  0.7284
  109SOL     OW  461   0.709   3.947   1.983 -0.2340 -0.1700  1.0190
  109SOL    HW1  462   0.667   4.004   2.048 -0.3412  1.7349 -0.6452
  109SOL    HW2  463   0.648   3.944   1.910  1.1121  0.0447 -0.1457
  110SOL     OW  464   4.687   3.536   4.689  0.6424 -0.0597  0.5617
  110SOL    HW1  465   4.627   3.499   4.753  0.0068  3.0066  1.9363
  110SOL    HW2  466   4.636   3.540   4.608 -1.2108  2.5473  1.7163
  111SOL     OW  467   0.855   2.276   4.226  0.1307 -0.1121  0.3710
  111SOL    HW1  468   0.924   2.315   4.173  0.2454  0.3600  0.8643
  111SOL    HW2  469   0.835   2.193   4.183 -0.4607  0.6980 -0.9743
  112SOL     OW  470   4.610   3.634   3.535  0.2296 -0.2943  0.4830
  112SOL    HW1  471   4.550   3.615   3.607  0.5732  0.1330  0.8893
  112SOL    HW2  472   4.582   3.576   3.464 -1.0948  0.3662  0.4315
  113SOL     OW  473   4.905   4.154   0.653  0.2546 -0.0067  0.4992
  113SOL    HW1  474   4.875   4.245   0.657  0.3661 -0.0000  1.2888
  113SOL    HW2  475   4.857   4.116   0.579 -0.1760  0.5539  0.4870
  114SOL     OW  476   4.783   2.071   0.633 -0.2930 -0.4172  0.5078
  114SOL    HW1  477   4.838   2.001   0.668  0.5039  0.1475  0.4140
  114SOL    HW2  478   4.794   2.143   0.694  2.2066  1.0723 -1.4937
  115SOL     OW  479   1.574   2.359   4.412  0.5116  0.2385  0.0818
  115SOL    HW1  480   1.586   2.292   4.345 -0.0245 -1.5362  1.6414
  115SOL    HW2  481   1.662   2.395   4.426  0.7350  0.1783 -1.0949
  116SOL     OW  482   3.447   4.185   1.236  0.2134  0.6205 -0.5686
  116SOL    HW1  483   3.491   4.148   1.159 -1.2603 -1.1321 -0.6400
  116SOL    HW2  484   3.359   4.207   1.205 -0.1404  0.6426  0.4191
  117SOL     OW  485   4.363   3.970   0.376 -0.5719 -0.0887  0.0966
  117SOL    HW1  486   4.386   3.965   0.469 -2.0268 -0.7357  0.4557
  117SOL    HW2  487   4.298   4.040   0.372  0.7842  1.1739 -0.7532
  118SOL     OW  488   4.849   4.727   1.750  0.0885  0.0074  0.4667
  118SOL    HW1  489   4.867   4.633   1.755 -0.8416 -0.2352 -0.3038
  118SOL    HW2  490   4.902   4.766   1.820  1.0812 -0.9923  0.3029
  119SOL     OW  491   4.731   4.315   4.939 -0.2878  0.6550  0.3799
  119SOL    HW1  492   4.782   4.281   4.866 -1.1323  1.7386 -0.7439
  119SOL    HW2  493   4.664   4.248   4.953  0.0278  0.3251  0.3320
  120SOL     OW  494   0.325   0.798   0.249  0.0108 -0.1151  0.2783
  120SOL    HW1  495   0.382   0.748   0.307  0.8414  1.7383  1.1345
  120SOL    HW2  496   0.236   0.774   0.275  0.3759 -1.5942  0.2291
  121SOL     OW  497   0.119   4.769   3.307 -0.0118  0.8736 -0.4298
  121SOL    HW1  498   0.049   4.784   3.370 -1.7547 -0.0019 -2.0765
  121SOL    HW2  499   0.200   4.787   3.356 -1.2254 -0.3510  2.2101
  122SOL     OW  500   4.368   3.250   0.237 -0.3097 -0.4082 -0.4485
  122SOL    HW1  501   4.394   3.301   0.313  0.6558 -2.7937  0.9075
  122SOL    HW2  502   4.274   3.269   0.227  0.1593  2.1991 -0.5472
  123SOL     OW  503   1.630   0.082   1.202 -0.0715  0.5369 -0.2321
  123SOL    HW1  504   1.717   0.045   1.218  1.1511  2.6824 -1.5844
  123SOL    HW2  505   1.613   0.065   1.110 -1.9094 -1.3471  0.3637
  124SOL     OW  506   3.798   1.398   4.363 -0.0229  0.4534  0.1337
  124SOL    HW1  507   3.811   1.455   4.286 -0.3701  1.7489  0.9915
  124SOL    HW2  508   3.878   1.407   4.414  0.0402 -0.0768  0.1326
  125SOL     OW  509   0.705   1.585   2.199  0.0479  0.7052 -0.0506
  125SOL    HW1  510   0.750   1.547   2.124 -1.6130 -2.7419  0.4671
  125SOL    HW2  511   0.641   1.646   2.161  0.8358  0.8317 -1.2164
  126SOL     OW  512   0.385   0.225   3.901 -0.2046  0.2570 -0.2072
  126SOL    HW1  513   0.455   0.272   3.947 -1.2393  0.2657  1.4652
  126SOL    HW2  514   0.353   0.287   3.835  1.1555  0.3466 -0.8011
  127SOL     OW  515   4.046   2.068   3.280  0.6618 -0.0990 -0.2319
  127SOL    HW1  516   4.132   2.110   3.284  0.7409 -0.2099 -0.6898
  127SOL    HW2  517   4.027   2.043   3.370  0.4878  1.1671  0.0938
  128SOL     OW  518   4.020   0.441   1.518 -0.0011 -0.2891  0.3919
  128SOL    HW1  519   4.071   0.360   1.514 -0.2828 -0.4292 -0.6376
  128SOL    HW2  520   3.932   0.413   1.542  0.7497  0.1377  4.1530
  129SOL     OW  521   1.259   0.048   4.495  0.2725  0.1783 -0.6450
  129SOL    HW1  522   1.328  -0.005   4.453  1.9077  0.4694  1.4887
  129SOL    HW2  523   1.289   0.138   4.485 -0.5592  0.4363 -0.9166
  130SOL     OW  524   0.753   0.035   1.890  0.8223  0.5347  0.2017
  130SOL    HW1  525   0.768   0.036   1.795  0.6673 -1.5053  0.1173
  130SOL    HW2  526   0.696  -0.040   1.905  0.3528  1.1774  1.8586
  131SOL     OW  527   2.516   3.845   4.691  0.4083 -0.0458 -0.4275
  131SOL    HW1  528   2.447   3.814   4.751  0.7331 -2.2304 -1.1096
  131SOL    HW2  529   2.519   3.779   4.622  3.3645 -0.1549 -0.2950
  132SOL     OW  530   0.674   1.883   2.029 -0.1997 -0.1127  0.8347
  132SOL    HW1  531   0.620   1.896   2.107 -1.9509  1.5768 -0.5426
  132SOL    HW2  532   0.618   1.833   1.970 -0.3357  1.6706 -0.6309
  133SOL     OW  533   0.002   1.051   3.283  0.0355  0.0389 -0.1038
  133SOL    HW1  534   0.022   1.020   3.195 -2.2854 -1.9334 -0.0262
  133SOL    HW2  535  -0.013   1.145   3.272  0.6393 -0.0137 -1.6296
  134SOL     OW  536   4.171   2.974   0.483 -0.2848 -0.2487  0.3999
  134SOL    HW1  537   4.103   2.908   0.487 -0.7876  0.2685  0.5602
  134SOL    HW2  538   4.190   2.985   0.390 -1.3432  0.5251  0.2597
  135SOL     OW  539   4.944   2.822   3.574  0.2042  0.2191 -0.1866
  135SOL    HW1  540   5.016   2.827   3.637 -0.0028  1.2295 -0.0112
  135SOL    HW2  541   4.914   2.731   3.580  0.7057  0.0904  0.5949
  136SOL     OW  542   4.678   2.408   1.981  0.3433  0.0268  0.0189
  136SOL    HW1  543   4.696   2.416   1.888 -0.3803 -0.0395 -0.1357
  136SOL    HW2  544   4.590   2.446   1.992  0.1093 -0.6398  0.5437
  137SOL     OW  545   0.476   4.517   2.941 -0.3663 -0.1056  0.0644
  137SOL    HW1  546   0.465   4.559   3.027  0.7294  1.0179 -0.2982
  137SOL    HW2  547   0.554   4.560   2.905  0.4220 -2.0256 -0.6328
  138SOL     OW  548   3.008   3.028   4.154  0.1439  0.6811 -0.4024
  138SOL    HW1  549   3.071   3.100   4.151 -1.3459  2.0082 -2.9291
  138SOL    HW2  550   3.055   2.953   4.119  1.5913  0.4002  1.8982
  139SOL     OW  551   0.322   2.436   4.994 -0.6742  0.2553 -0.0234
  139SOL    HW1  552   0.263   2.490   4.941  0.4651  0.5647 -1.0053
  139SOL    HW2  553   0.404   2.435   4.945  0.1813 -0.0734  1.3752
  140SOL     OW  554   1.045   2.343   4.056 -0.3433  0.1796  0.2974
  140SOL    HW1  555   1.023   2.367   3.966 -1.5068 -2.5336 -0.2446
  140SOL    HW2  556   1.139   2.325   4.054 -0.4033 -0.0849 -0.4361
  141SOL     OW  557   0.775   0.692   3.265  0.1178  0.9453  0.1864
  141SOL    HW1  558   0.826   0.614   3.246 -3.5452 -1.8264  0.6525
  141SOL    HW2  559   0.794   0.712   3.357 -1.0114 -1.2769  0.9690
  142SOL     OW  560   2.694   4.671   1.330 -0.6693  0.1044  0.0997
  142SOL    HW1  561   2.694   4.626   1.245  2.1641  1.6382 -0.8148
  142SOL    HW2  562   2.614   4.723   1.328 -0.0251  1.1489 -2.2695
  143SOL     OW  563   1.011   0.771   2.418  0.0271 -0.1707 -0.2207
  143SOL    HW1  564   1.007   0.701   2.484 -0.5923  0.0735  0.0086
  143SOL    HW2  565   1.085   0.747   2.362  0.8877 -0.1082  0.8623
  144SOL     OW  566   4.436   2.768   0.837 -0.2510 -0.3702  0.0675
  144SOL    HW1  567   4.468   2.827   0.768  0.2748  2.2842  2.4011
  144SOL    HW2  568   4.515   2.732   0.877 -0.5181 -1.0122  0.0321
  145SOL     OW  569   2.427   4.279   2.545  0.3297  0.0837 -0.0127
  145SOL    HW1  570   2.431   4.237   2.631  0.5597 -0.5994 -0.3484
  145SOL    HW2  571   2.447   4.371   2.562  0.4639 -0.0642  0.6543
  146SOL     OW  572   3.218   4.436   3.127 -0.6177  0.2857 -0.2811
  146SOL    HW1  573   3.298   4.388   3.106 -1.6846 -0.9787 -1.7574
  146SOL    HW2  574   3.243   4.496   3.197  2.1125  1.3584 -2.0114
  147SOL     OW  575   0.816   3.170   2.432  0.0395  0.2793 -0.6681
  147SOL    HW1  576   0.728   3.137   2.413 -0.9873  0.9025  2.4051
  147SOL    HW2  577   0.854   3.104   2.490  1.3925  0.3368 -1.4553
  148SOL     OW  578   0.767   0.202   3.472 -0.6038 -0.2058 -0.4207
  148SOL    HW1  579   0.730   0.259   3.405  2.6388 -1.8536 -3.9710
  148SOL    HW2  580   0.861   0.217   3.467 -0.0105 -2.3168  2.0244
  149SOL     OW  581   2.750   0.516   3.442  0.2845 -0.3494  0.1519
  149SOL    HW1  582   2.756   0.429   3.403 -1.3350 -0.7271  0.6709
  149SOL    HW2  583   2.789   0.575   3.378  0.0974 -1.2829 -0.8327
  150SOL     OW  584   0.780   2.522   0.372 -0.1496 -0.1168  0.0681
  150SOL    HW1  585   0.804   2.611   0.345 -1.9276  0.2571 -0.3889
  150SOL    HW2  586   0.804   2.518   0.464 -0.3682  0.9545  0.1825
  151SOL     OW  587   1.890   2.098   2.432  0.4140  0.0122  0.3356
  151SOL    HW1  588   1.915   2.136   2.516  1.6473 -0.9067  0.4027
  151SOL    HW2  589   1.844   2.169   2.386  0.8420  0.9130  1.2682
  152SOL     OW  590   2.688   2.660   4.198 -0.0376  0.1338 -0.2628
  152SOL    HW1  591   2.711   2.689   4.110 -0.4674  0.7637 -0.1775
  152SOL    HW2  592   2.722   2.729   4.255 -2.2738  1.2486 -0.1415
  153SOL     OW  593   2.869   0.353   4.038  0.5702  0.8863 -0.6746
  153SOL    HW1  594   2.923   0.294   3.986 -0.4690  0.6327 -1.5013
  153SOL    HW2  595   2.874   0.437   3.994  1.1317  1.1405 -0.1440
  154SOL     OW  596   1.349   4.874   0.091  0.4957 -0.4185  0.0304
  154SOL    HW1  597   1.411   4.850   0.022  0.7284  1.4345 -0.4757
  154SOL    HW2  598   1.272   4.906   0.044  0.2218 -0.1643  0.6388
  155SOL     OW  599   3.343   3.930   1.705 -0.0426 -0.9055 -0.0919
  155SOL    HW1  600   3.362   3.981   1.626  1.5205 -1.9287 -0.4152
  155SOL    HW2  601   3.277   3.867   1.677 -0.4319 -0.4373 -0.2435
  156SOL     OW  602   2.096   4.679   1.978 -0.4752  0.3176 -0.3340
  156SOL    HW1  603   2.018   4.725   2.008 -0.4194  0.5696 -0.5681
  156SOL    HW2  604   2.067   4.589   1.965 -0.6192  0.3150  0.0006
  157SOL     OW  605   4.625   0.644   2.081  0.9682  0.1923 -0.0589
  157SOL    HW1  606   4.612   0.651   1.987  0.0812  1.7271  0.1393
  157SOL    HW2  607   4.559   0.580   2.110  0.8587  0.1440 -0.4120
  158SOL     OW  608   2.988   2.252   2.149 -0.0045  0.2431 -0.1201
  158SOL    HW1  609   2.947   2.338   2.151  2.2592  1.3873  0.2992
  158SOL    HW2  610   3.076   2.266   2.185 -0.0562 -2.5363  1.4270
  159SOL     OW  611   3.408   0.534   3.325 -0.1804  0.4881  0.2644
  159SOL    HW1  612   3.350   0.606   3.300 -1.6765  0.2173  2.6726
  159SOL    HW2  613   3.455   0.567   3.401  2.6375  0.5336 -1.3625
  160SOL     OW  614   1.566   4.680   4.621  0.1746 -0.6741 -0.6530
  160SOL    HW1  615   1.493   4.717   4.571 -1.0951 -0.3214  1.3483
  160SOL    HW2  616   1.594   4.603   4.570 -0.8821 -0.2048 -1.9950
  161SOL     OW  617   3.296   2.655   0.973  0.0820  0.1877 -0.0789
  161SOL    HW1  618   3.385   2.688   0.984  0.8607 -1.9748  0.6716
  161SOL    HW2  619   3.274   2.674   0.881  1.3419  0.6701 -0.2901
  162SOL     OW  620   2.217   3.106   2.263 -0.6809 -0.0975 -0.5457
  162SOL    HW1  621   2.130   3.082   2.294 -1.4238  1.9151 -0.8951
  162SOL    HW2  622   2.206   3.194   2.227  1.9335  1.1468  1.3444
  163SOL     OW  623   1.622   3.811   3.532 -0.4361 -0.4034 -0.4503
  163SOL    HW1  624   1.641   3.745   3.599  0.2601  1.0691  0.8394
  163SOL    HW2  625   1.584   3.760   3.460 -0.5359 -2.1292  0.7491
  164SOL     OW  626   0.037   1.869   2.375  0.1189  0.4677  0.0272
  164SOL    HW1  627   0.114   1.873   2.431 -0.4933 -1.3294  1.0971
  164SOL    HW2  628   0.015   1.960   2.357  1.9834  1.0363  0.3683
  165SOL     OW  629   3.530   3.580   0.945 -0.0882  0.0745  0.5808
  165SOL    HW1  630   3.577   3.641   1.001  0.7390  0.2816 -0.2930
  165SOL    HW2  631   3.443   3.618   0.934  1.0534  2.3178 -1.6938
  166SOL     OW  632   4.642   2.769   4.224 -0.8327  0.4929  0.3787
  166SOL    HW1  633   4.659   2.676   4.238 -0.7240  0.4867  0.2102
  166SOL    HW2  634   4.549   2.779   4.242 -0.6244  0.5590  1.4823
  167SOL     OW  635   4.383   4.123   2.892  0.3025  0.4566 -0.2838
  167SOL    HW1  636   4.368   4.049   2.833  0.0115 -1.2114  1.7526
  167SOL    HW2  637   4.311   4.118   2.955  0.7696  1.9689  0.4224
  168SOL     OW  638   4.479   0.810   0.392 -0.0149 -0.2580 -0.4262
  168SOL    HW1  639   4.523   0.895   0.397  0.5921 -0.6455  1.7076
  168SOL    HW2  640   4.535   0.757   0.336  0.5607  0.2050 -0.2982
  169SOL     OW  641   0.488   2.283   2.776 -0.2601  0.2241  0.2112
  169SOL    HW1  642   0.451   2.331   2.850  0.0440 -0.0789  0.5666
  169SOL    HW2  643   0.579   2.311   2.773  0.4798 -1.7576  1.6667
  170SOL     OW  644   2.239   3.009   3.414  0.3553 -0.2766 -0.1623
  170SOL    HW1  645   2.231   2.921   3.378  3.9884 -1.3345  1.0757
  170SOL    HW2  646   2.275   3.061   3.342 -0.9859  0.0192 -0.6413
  171SOL     OW  647   3.355   3.396   2.061 -0.0858  0.0629 -0.0068
  171SOL    HW1  648   3.309   3.322   2.021  0.8398  0.2188 -1.4077
  171SOL    HW2  649   3.285   3.450   2.097 -0.8425 -0.9228  0.0582
  172SOL     OW  650   4.220   3.170   1.873 -0.2640 -0.0963 -0.1332
  172SOL    HW1  651   4.250   3.181   1.782 -0.2930  1.1114 -0.0083
  172SOL    HW2  652   4.145   3.111   1.866 -0.0987 -0.2335 -0.8623
  173SOL     OW  653   2.995   0.657   1.959 -0.0237 -0.0361 -0.1238
  173SOL    HW1  654   2.916   0.692   2.001 -0.6579 -0.7579 -0.6924
  173SOL    HW2  655   2.991   0.563   1.975  1.6184  0.0943  1.3080
  174SOL     OW  656   4.951   4.848   1.388 -0.3431 -0.5421 -0.1995
  174SOL    HW1  657   4.981   4.789   1.457 -0.3244 -0.2292  0.0579
  174SOL    HW2  658   4.997   4.930   1.404 -0.7832 -0.2877 -0.2340
  175SOL     OW  659   2.779   1.818   4.890 -0.2825 -0.0375  0.5045
  175SOL    HW1  660   2.812   1.860   4.811 -0.3128 -2.9225 -1.1915
  175SOL    HW2  661   2.848   1.832   4.955  0.5444  0.9326 -0.5455
  176SOL     OW  662   2.496   1.461   2.083  0.4745 -0.6832  0.8065
  176SOL    HW1  663   2.567   1.397   2.087  1.8652  0.6583 -1.0135
  176SOL    HW2  664   2.537   1.543   2.108 -0.2856  0.2080 -0.7436
  177SOL     OW  665   0.898   3.458   4.908  0.3923 -0.0368 -0.0536
  177SOL    HW1  666   0.856   3.458   4.994 -0.9031 -0.0420 -0.6625
  177SOL    HW2  667   0.946   3.376   4.904 -1.0149 -0.8861 -0.0152
  178SOL     OW  668   2.735   1.338   2.110  0.1750  0.0621  0.5479
  178SOL    HW1  669   2.814   1.391   2.104  0.2328 -0.0763  0.0062
  178SOL    HW2  670   2.767   1.251   2.136  0.1613  0.1005  0.6932
  179SOL     OW  671   3.838   1.987   3.119 -0.5340  0.5954  0.0413
  179SOL    HW1  672   3.900   2.021   3.184 -0.7216 -0.2765  0.7008
  179SOL    HW2  673   3.839   2.052   3.049  0.0076  1.3440  0.7137
  180SOL     OW  674   0.955   3.416   0.991  0.0179 -0.0987 -0.5135
  180SOL    HW1  675   0.871   3.438   0.952 -0.5121  0.9507  1.1101
  180SOL    HW2  676   0.943   3.329   1.028 -0.5212  0.2506  0.1428
  181SOL     OW  677   3.910   2.373   4.457 -0.5038  0.2336  0.0365
  181SOL    HW1  678   3.868   2.434   4.396  1.7748  1.7240 -0.1705
  181SOL    HW2  679   3.944   2.429   4.526 -1.3531 -1.2375  1.7158
  182SOL     OW  680   0.671   0.393   3.251  0.7370 -0.0074 -0.9254
  182SOL    HW1  681   0.588   0.386   3.205  0.0893  2.4793 -0.2956
  182SOL    HW2  682   0.737   0.399   3.182  0.1011  0.5270 -1.4999
  183SOL     OW  683   1.161   3.181   4.231  0.3926 -0.4400 -0.3648
  183SOL    HW1  684   1.206   3.106   4.191  0.1830 -0.1573 -1.1416
  183SOL    HW2  685   1.225   3.252   4.227 -0.0716 -0.0564 -1.4055
  184SOL     OW  686   1.507   3.898   1.083  0.1455  0.3983 -0.1469
  184SOL    HW1  687   1.512   3.807   1.115 -2.1834  0.1536 -0.3196
  184SOL    HW2  688   1.592   3.935   1.105  1.1185 -1.7821  0.0682
  185SOL     OW  689   3.182   1.224   1.991  0.0947  0.4778 -0.5722
  185SOL    HW1  690   3.182   1.256   2.081  0.1840 -2.2849  0.4836
  185SOL    HW2  691   3.152   1.299   1.940  1.9573  2.7834  1.4533
  186SOL     OW  692   3.955   1.174   3.690  0.5824  0.1085 -0.6590
  186SOL    HW1  693   4.004   1.254   3.673 -1.3795  1.1287 -1.8381
  186SOL    HW2  694   3.876   1.182   3.637  0.4559 -2.7601 -1.0775
  187SOL     OW  695   4.752   4.114   1.521  0.0159  0.1044 -0.2794
  187SOL    HW1  696   4.668   4.125   1.476  0.5116  1.6754 -0.8973
  187SOL    HW2  697   4.733   4.056   1.595 -1.4501 -0.1443 -0.8291
  188SOL     OW  698   3.323   4.103   2.230 -0.1993  0.1888  0.9376
  188SOL    HW1  699   3.399   4.060   2.193 -0.8294 -0.6039  0.5269
  188SOL    HW2  700   3.319   4.072   2.320  1.6989  2.6057  1.9573
  189SOL     OW  701   2.298   2.547   1.748 -0.4289  0.2821  0.1003
  189SOL    HW1  702   2.359   2.601   1.697  0.3912 -0.6369  0.0725
  189SOL    HW2  703   2.335   2.459   1.743 -2.2426 -0.4846 -0.6573
  190SOL     OW  704   1.312   2.287   3.968  0.4878  0.2532 -0.4536
  190SOL    HW1  705   1.362   2.301   4.048 -1.4787  2.2523  0.5473
  190SOL    HW2  706   1.317   2.193   3.952  1.8621 -0.0236  1.3748
  191SOL     OW  707   2.129   2.356   2.234 -0.1209 -0.3493  0.0603
  191SOL    HW1  708   2.070   2.342   2.160  1.2814  1.2575 -1.4519
  191SOL    HW2  709   2.216   2.339   2.199  0.4588 -1.7300  1.9945
  192SOL     OW  710   0.803   4.795   3.465  0.2336 -0.2313 -0.1980
  192SOL    HW1  711   0.802   4.767   3.557  0.9503 -0.9412 -0.3963
  192SOL    HW2  712   0.794   4.714   3.415 -0.5505  0.1905 -0.7646
  193SOL     OW  713   1.906   1.529   0.109 -0.6261  0.9442  0.2370
  193SOL    HW1  714   1.870   1.609   0.070 -0.8351  1.4884  1.4913
  193SOL    HW2  715   1.910   1.467   0.036 -0.9379  1.9300 -0.6580
  194SOL     OW  716   0.224   1.518   1.010 -0.3624  0.0947 -0.5947
  194SOL    HW1  717   0.221   1.613   1.015 -1.8368 -0.0005  1.9051
  194SOL    HW2  718   0.150   1.495   0.953  0.4879  0.4274 -1.8694
  195SOL     OW  719   3.277   3.721   2.426 -0.5244 -0.0668  0.2234
  195SOL    HW1  720   3.348   3.674   2.469  0.0402  0.9447  0.4253
  195SOL    HW2  721   3.315   3.806   2.403 -1.2098 -0.0875 -1.0697
  196SOL     OW  722   3.425   2.737   2.801 -0.6720 -0.2249  0.1174
  196SOL    HW1  723   3.471   2.661   2.838  0.5868  0.5013  0.0943
  196SOL    HW2  724   3.434   2.726   2.707 -0.0114  0.2237  0.1226
  197SOL     OW  725   1.179   0.153   4.794 -0.8190 -0.0388  0.1071
  197SOL    HW1  726   1.171   0.084   4.860  0.7877 -0.2705  0.1150
  197SOL    HW2  727   1.113   0.132   4.728 -1.7119 -0.4212  1.1070
  198SOL     OW  728   0.366   0.784   1.734 -0.4531  0.3293  0.6593
  198SOL    HW1  729   0.375   0.774   1.639 -0.4254 -0.4666  0.7382
  198SOL    HW2  730   0.272   0.778   1.750 -0.5085  1.0349  0.6288
  199SOL     OW  731   4.291   3.694   0.484 -0.8802  0.4395 -0.2624
  199SOL    HW1  732   4.325   3.681   0.573  0.6467 -0.2869 -0.9093
  199SOL    HW2  733   4.311   3.785   0.464  0.3904  0.1338 -0.4792
  200SOL     OW  734   4.359   4.249   2.270 -0.1005 -0.1552  0.3309
  200SOL    HW1  735   4.277   4.212   2.303 -1.3854 -0.0193 -2.4048
  200SOL    HW2  736   4.427   4.211   2.326 -1.8847 -1.5067  1.7048
  201SOL     OW  737   2.247   4.299   2.291  0.0370  0.1550 -0.2572
  201SOL    HW1  738   2.270   4.291   2.199 -1.1060  1.3102 -0.6633
  201SOL    HW2  739   2.267   4.213   2.328 -0.3563 -0.6170 -1.7712
  202SOL     OW  740   4.405   1.900   3.871  0.0571  0.2599  0.6209
  202SOL    HW1  741   4.400   1.982   3.920  0.6933  1.2891 -0.9528
  202SOL    HW2  742   4.422   1.927   3.781  1.2118 -1.6447  0.2121
  203SOL     OW  743   3.854   4.898   4.315  0.0233  0.2565 -0.4787
  203SOL    HW1  744   3.813   4.954   4.381  0.1164 -0.3684  0.1233
  203SOL    HW2  745   3.936   4.943   4.293  0.6055 -0.1430  0.7739
  204SOL     OW  746   3.435   3.685   1.279 -0.1784  0.0157 -0.3506
  204SOL    HW1  747   3.406   3.776   1.274 -0.7940 -0.2422 -1.7092
  204SOL    HW2  748   3.356   3.633   1.266  0.3925 -0.7081 -1.0228
  205SOL     OW  749   3.737   3.899   4.148  0.1749  0.0380 -0.2660
  205SOL    HW1  750   3.704   3.982   4.182  2.2775  0.6951  0.3401
  205SOL    HW2  751   3.703   3.895   4.058 -0.9546  0.9438  0.0967
  206SOL     OW  752   2.315   0.941   3.561  0.6254 -0.2094 -0.3542
  206SOL    HW1  753   2.227   0.960   3.528  0.7462  0.0328 -0.5347
  206SOL    HW2  754   2.374   0.973   3.493  0.8277 -1.4578 -0.7858
  207SOL     OW  755   4.468   0.821   3.863  0.0692  0.2008 -0.2720
  207SOL    HW1  756   4.388   0.870   3.882  0.5487  1.0522 -0.3834
  207SOL    HW2  757   4.533   0.857   3.923  0.7790  0.6882 -1.2962
  208SOL     OW  758   3.280   4.819   4.300 -0.8234 -0.3787 -0.6080
  208SOL    HW1  759   3.315   4.731   4.287 -0.0448 -0.1267 -0.3055
  208SOL    HW2  760   3.265   4.825   4.394 -0.7988 -0.1627 -0.6175
  209SOL     OW  761   3.510   4.340   0.149 -0.8092 -0.9054 -0.0225
  209SOL    HW1  762   3.456   4.386   0.085 -1.6387  1.7918  2.4108
  209SOL    HW2  763   3.590   4.392   0.156 -0.6312 -1.2842  0.9249
  210SOL     OW  764   2.465   4.684   3.497 -0.7110 -0.0490 -0.2042
  210SOL    HW1  765   2.515   4.623   3.443 -2.5439 -0.8186 -1.0980
  210SOL    HW2  766   2.523   4.702   3.572 -0.2490 -3.2337  0.3601
  211SOL     OW  767   3.409   3.434   4.681 -0.7354  0.1464 -0.6416
  211SOL    HW1  768   3.347   3.362   4.680 -0.3636 -0.2049 -2.4098
  211SOL    HW2  769   3.495   3.392   4.680 -0.5140  0.5728 -2.0160
  212SOL     OW  770   0.709   2.854   0.906  0.5619  0.1986 -0.1547
  212SOL    HW1  771   0.789   2.867   0.856  0.8221  0.7047  0.3854
  212SOL    HW2  772   0.672   2.942   0.915  1.0426  0.2586  1.4031
  213SOL     OW  773   2.979   4.554   1.210 -0.0042 -0.3987 -0.4119
  213SOL    HW1  774   3.042   4.611   1.164 -0.6642  1.6785  1.0738
  213SOL    HW2  775   2.972   4.593   1.297 -0.6038 -2.7738  0.6691
  214SOL     OW  776   0.154   4.036   3.665 -0.4115  0.0979 -0.5477
  214SOL    HW1  777   0.203   4.115   3.689 -0.6817  0.3951 -0.9628
  214SOL    HW2  778   0.105   4.061   3.587  0.2962 -0.7915 -1.2991
  215SOL     OW  779   4.099   1.676   3.590 -0.6600 -0.0263  0.3676
  215SOL    HW1  780   4.123   1.765   3.616 -1.4598  0.5957 -0.9583
  215SOL    HW2  781   4.167   1.649   3.530 -0.8731  0.0205  0.1038
  216SOL     OW  782   2.126   4.020   0.308  0.2372 -0.5204 -0.0137
  216SOL    HW1  783   2.096   3.972   0.231 -0.9144 -3.2744  2.0279
  216SOL    HW2  784   2.211   3.981   0.330  0.2340 -0.2411  0.5156
  217SOL     OW  785   1.203   1.250   2.597  0.6090  0.1488 -0.3191
  217SOL    HW1  786   1.137   1.181   2.592  0.8932 -0.1241 -0.3852
  217SOL    HW2  787   1.153   1.331   2.607  0.2269  0.0635 -1.4121
  218SOL     OW  788   4.020   1.584   3.187  0.7407  0.3743 -0.6852
  218SOL    HW1  789   3.958   1.645   3.227 -0.0073  0.0375 -1.3127
  218SOL    HW2  790   4.095   1.585   3.245 -0.2222  0.0786  0.5981
  219SOL     OW  791   3.872   1.734   1.080  0.5045  0.3969 -0.0086
  219SOL    HW1  792   3.865   1.724   1.175  0.2009  0.6754  0.0026
  219SOL    HW2  793   3.875   1.829   1.066 -1.8223  0.4716 -0.4131
  220SOL     OW  794   2.903   2.256   3.341  0.1203  0.0503  0.4058
  220SOL    HW1  795   2.893   2.330   3.401 -2.1326  0.4728 -0.3592
  220SOL    HW2  796   2.921   2.181   3.398 -1.0865  0.5860  1.5635
  221SOL     OW  797   1.770   0.084   3.464 -0.0242 -0.3727 -0.0889
  221SOL    HW1  798   1.823   0.095   3.543  0.4654 -0.8900 -0.3362
  221SOL    HW2  799   1.684   0.056   3.496  0.5313 -1.7998  0.2147
  222SOL     OW  800   1.982   4.999   0.430 -0.3675  0.0671  0.3108
  222SOL    HW1  801   1.996   4.920   0.378  1.8694 -0.6261  1.8123
  222SOL    HW2  802   2.031   5.068   0.385  0.4613 -0.2236  0.7399
  223SOL     OW  803   1.546   4.571   2.814  0.1318  0.3145  0.1134
  223SOL    HW1  804   1.527   4.608   2.728  0.8782  2.0213  0.6392
  223SOL    HW2  805   1.641   4.562   2.816 -0.0519 -2.7149 -0.3626
  224SOL     OW  806   2.398   3.316   1.226 -0.4906  0.0049 -0.2461
  224SOL    HW1  807   2.462   3.268   1.280  0.5228  0.3188 -1.1368
  224SOL    HW2  808   2.327   3.253   1.212  0.3139 -0.8828 -0.4873
  225SOL     OW  809   4.930   1.918   4.426  0.2127  0.6209  0.0278
  225SOL    HW1  810   4.903   1.894   4.338  1.0604  1.7229 -0.5663
  225SOL    HW2  811   4.852   1.956   4.466 -0.2833 -0.2600 -0.1000
  226SOL     OW  812   1.108   3.897   4.023  0.1411  0.0415  0.0727
  226SOL    HW1  813   1.042   3.965   4.032  0.2837  0.1536  0.2834
  226SOL    HW2  814   1.060   3.814   4.030 -0.1255  0.1152 -0.8582
  227SOL     OW  815   4.931   4.943   1.934  0.8605  0.0162 -0.0355
  227SOL    HW1  816   4.872   5.002   1.889  1.3617 -0.7645 -1.8379
  227SOL    HW2  817   4.895   4.933   2.022  0.4477  2.4768  0.1310
  228SOL     OW  818   2.640   2.911   2.475 -0.4410 -0.1879  0.7819
  228SOL    HW1  819   2.689   2.954   2.545  0.2591  0.6492 -0.1991
  228SOL    HW2  820   2.558   2.959   2.469 -0.5257 -0.2939  1.0419
  229SOL     OW  821   4.832   0.951   4.915  0.6015 -0.7869  0.4431
  229SOL    HW1  822   4.808   0.956   4.823  0.8001 -1.7163  0.3394
  229SOL    HW2  823   4.869   0.864   4.927 -0.2220 -1.0094  1.5920
  230SOL     OW  824   2.243   4.885   0.756 -0.2178 -0.1972 -1.0729
  230SOL    HW1  825   2.286   4.843   0.830 -0.6536  1.4886  0.2003
  230SOL    HW2  826   2.268   4.832   0.680  2.6131 -0.3476 -0.1641
  231SOL     OW  827   4.124   1.180   3.363 -0.1155 -0.0197 -0.5776
  231SOL    HW1  828   4.061   1.241   3.402 -0.4077 -0.4286 -0.4120
  231SOL    HW2  829   4.080   1.095   3.364  0.6286 -0.4132  0.0128
  232SOL     OW  830   2.133   2.465   0.697 -0.1754 -0.0519  0.2832
  232SOL    HW1  831   2.115   2.559   0.701 -1.1895 -0.1991 -0.3173
  232SOL    HW2  832   2.174   2.445   0.781 -2.2421  0.4880  1.5170
  233SOL     OW  833   3.745   4.165   4.264  0.0476  0.1165  0.1393
  233SOL    HW1  834   3.740   4.144   4.357  0.6368  1.3991  0.4850
  233SOL    HW2  835   3.786   4.252   4.261  0.4046 -0.0730 -1.3316
  234SOL     OW  836   4.105   4.033   4.291  0.0745  0.7938 -0.0148
  234SOL    HW1  837   4.165   4.056   4.221  0.7177 -0.4071  0.1272
  234SOL    HW2  838   4.160   3.996   4.360 -0.8947 -1.2767 -0.2846
  235SOL     OW  839   4.320   2.448   0.429 -0.7186  0.3920 -0.5314
  235SOL    HW1  840   4.365   2.454   0.513 -1.0090 -0.9332 -0.2543
  235SOL    HW2  841   4.386   2.415   0.368 -0.5132  1.3337 -0.8367
  236SOL     OW  842   4.244   4.683   2.469 -0.4379  0.1667 -0.0980
  236SOL    HW1  843   4.221   4.760   2.417 -0.3255  1.0330  1.1035
  236SOL    HW2  844   4.180   4.617   2.444 -1.0507  0.9174 -0.5408
  237SOL     OW  845   4.880   4.090   3.474 -0.2810  0.2148 -0.5196
  237SOL    HW1  846   4.933   4.083   3.394 -0.4828  1.8798 -0.8280
  237SOL    HW2  847   4.830   4.008   3.477  3.1399 -2.0655  0.4579
  238SOL     OW  848   2.525   1.733   1.514 -0.6497 -0.1959  0.5767
  238SOL    HW1  849   2.499   1.749   1.605 -0.2553 -0.9480  0.8306
  238SOL    HW2  850   2.518   1.819   1.472 -2.4808 -0.1643  0.8768
  239SOL     OW  851   1.323   3.889   4.815 -0.2218  0.1644 -0.6576
  239SOL    HW1  852   1.268   3.855   4.744 -0.4690 -0.7803 -0.0295
  239SOL    HW2  853   1.296   3.980   4.824 -2.2200 -0.4400  0.0892
  240SOL     OW  854   4.894   1.943   1.931  0.0276 -0.1685 -0.1620
  240SOL    HW1  855   4.826   1.983   1.984 -1.4936 -1.4302 -1.0737
  240SOL    HW2  856   4.939   1.883   1.990 -1.3328 -1.2009 -0.1414
  241SOL     OW  857   0.011   0.722   4.912 -0.2260 -0.7286 -0.3860
  241SOL    HW1  858   0.044   0.645   4.958 -0.5813 -1.2857 -1.0466
  241SOL    HW2  859   0.089   0.769   4.884  0.0205  0.1710  1.6338
  242SOL     OW  860   2.395   0.755   2.170 -0.2705  0.1297 -0.7810
  242SOL    HW1  861   2.354   0.827   2.219  1.7635  0.7862  0.0865
  242SOL    HW2  862   2.473   0.795   2.131  0.8017 -1.5556 -0.4357
  243SOL     OW  863   1.165   0.962   0.815  0.2735  0.0560  0.5928
  243SOL    HW1  864   1.211   0.986   0.895  3.3264 -2.2497 -0.2481
  243SOL    HW2  865   1.141   0.870   0.827 -2.8108  0.7227  0.3017
  244SOL     OW  866   4.432   4.844   4.604 -0.5239 -0.0331 -0.1935
  244SOL    HW1  867   4.363   4.778   4.599  0.6875 -1.2257 -2.0654
  244SOL    HW2  868   4.498   4.805   4.661  0.4511 -0.7135 -1.7644
  245SOL     OW  869   4.013   0.808   0.266  0.1283  0.1281  0.0139
  245SOL    HW1  870   4.008   0.713   0.257  0.9340  0.1058 -0.2844
  245SOL    HW2  871   4.065   0.822   0.346  0.1811  0.3150 -0.0515
  246SOL     OW  872   1.545   3.843   0.727  0.6165  0.1263 -0.2071
  246SOL    HW1  873   1.471   3.893   0.762 -0.4010 -1.2366 -0.3695
  246SOL    HW2  874   1.546   3.864   0.634  0.4145  0.1244 -0.2102
  247SOL     OW  875   4.512   0.624   4.318 -0.1531  0.1594 -0.6305
  247SOL    HW1  876   4.570   0.691   4.283  0.1848 -0.3651 -1.0858
  247SOL    HW2  877   4.479   0.578   4.241 -0.3363 -0.2366 -0.3200
  248SOL     OW  878   3.839   0.600   0.980  0.1293 -0.5385 -0.0353
  248SOL    HW1  879   3.765   0.659   0.995  0.0288 -0.7613  0.3452
  248SOL    HW2  880   3.903   0.625   1.046 -0.2896 -1.4781  0.7444
  249SOL     OW  881   4.128   0.088   4.551  0.0029  0.2171 -0.0326
  249SOL    HW1  882   4.058   0.121   4.607 -0.9977 -0.4725 -0.8323
  249SOL    HW2  883   4.209   0.112   4.597 -0.7388  1.2490  0.7865
  250SOL     OW  884   2.549   4.120   4.166 -0.6354  0.2590 -0.7780
  250SOL    HW1  885   2.587   4.047   4.214  0.1364  1.5598  0.6830
  250SOL    HW2  886   2.615   4.142   4.099 -0.7377 -0.1876 -1.0264
  251SOL     OW  887   4.634   1.634   1.580 -0.0053 -0.4899 -0.4170
  251SOL    HW1  888   4.727   1.654   1.584 -0.2713  0.6571  0.7519
  251SOL    HW2  889   4.630   1.543   1.549  1.4242 -0.0791 -1.9443
  252SOL     OW  890   4.367   0.373   4.646 -0.0848 -0.7024 -0.2758
  252SOL    HW1  891   4.319   0.397   4.566 -0.6624  0.8734  0.5067
  252SOL    HW2  892   4.450   0.339   4.614 -0.1909  0.1472 -1.5584
  253SOL     OW  893   1.874   0.077   2.009  0.4408 -0.5652 -0.2193
  253SOL    HW1  894   1.832   0.039   1.932  0.6391 -0.8483 -0.1885
  253SOL    HW2  895   1.962   0.100   1.979  1.1611 -2.3326  0.3780
  254SOL     OW  896   4.637   1.048   2.733 -0.5664 -0.1065  0.2593
  254SOL    HW1  897   4.596   1.031   2.818  0.2616  2.7088  1.3316
  254SOL    HW2  898   4.730   1.031   2.748 -0.7851 -3.3782 -1.2811
  255SOL     OW  899   4.939   0.209   2.114 -0.3899  0.0279  0.1018
  255SOL    HW1  900   4.999   0.268   2.161  0.4262 -0.7608  0.0713
  255SOL    HW2  901   4.953   0.124   2.155 -2.1912  0.0046  0.7210
  256SOL     OW  902   2.848   0.145   4.821  0.3108  0.2842 -0.0618
  256SOL    HW1  903   2.921   0.119   4.765 -0.1021 -0.1995 -0.3804
  256SOL    HW2  904   2.818   0.064   4.862  1.1309  0.7325  1.5146
  257SOL     OW  905   4.311   1.649   4.636 -0.5469 -0.4150 -0.0584
  257SOL    HW1  906   4.294   1.734   4.595  1.9987  0.5704  0.6947
  257SOL    HW2  907   4.309   1.587   4.564 -2.4920  0.2423 -0.6220
  258SOL     OW  908   2.335   0.599   0.154 -0.3634 -0.3840  0.1275
  258SOL    HW1  909   2.408   0.624   0.098 -0.6572 -0.7744 -0.4423
  258SOL    HW2  910   2.258   0.609   0.098 -0.4340 -3.3775 -0.4549
  259SOL     OW  911   3.718   3.515   0.666  0.1272 -0.3225 -0.2432
  259SOL    HW1  912   3.709   3.519   0.762 -1.5372 -0.6346 -0.3686
  259SOL    HW2  913   3.796   3.461   0.652  0.7853  0.2728  0.9318
  260SOL     OW  914   2.458   4.168   3.351 -0.4338 -0.4807  0.9653
  260SOL    HW1  915   2.464   4.129   3.438 -0.4481 -0.8864  0.7838
  260SOL    HW2  916   2.535   4.223   3.344 -1.4775  1.2312  2.0555
  261SOL     OW  917   3.294   0.316   4.289 -0.2595 -0.3478 -0.3383
  261SOL    HW1  918   3.384   0.317   4.257  0.0302  2.4994  0.3189
  261SOL    HW2  919   3.297   0.261   4.367  0.8359 -0.5540 -0.5066
  262SOL     OW  920   4.211   2.426   3.399  0.4461  0.4144  0.0129
  262SOL    HW1  921   4.216   2.503   3.342 -0.5410  1.2009  0.9567
  262SOL    HW2  922   4.139   2.445   3.459 -1.9613 -2.5534 -1.6564
  263SOL     OW  923   1.676   4.058   3.377 -0.4990 -0.2126 -0.5765
  263SOL    HW1  924   1.685   4.001   3.301 -0.6961 -0.8483 -0.1294
  263SOL    HW2  925   1.653   3.999   3.449 -0.4558  0.3971 -0.0532
  264SOL     OW  926   3.149   4.585   1.492  0.2820  0.2477 -0.1631
  264SOL    HW1  927   3.088   4.655   1.467 -1.1873 -0.8201  0.3073
  264SOL    HW2  928   3.228   4.603   1.441  0.3304  2.8358  0.7080
  265SOL     OW  929   3.091   2.114   1.285  0.2088  0.2966 -0.6526
  265SOL    HW1  930   3.071   2.198   1.244 -2.6658  0.2476  0.4120
  265SOL    HW2  931   3.018   2.057   1.260  1.0224 -1.2504  0.3488
  266SOL     OW  932   2.094   0.323   2.199 -0.2465 -0.4675 -0.0291
  266SOL    HW1  933   2.006   0.286   2.206 -0.6023  0.1882 -0.8059
  266SOL    HW2  934   2.080   0.411   2.162  0.6884 -0.1337  0.3710
  267SOL     OW  935   0.249   4.829   4.833 -0.8253 -0.0493  0.3314
  267SOL    HW1  936   0.285   4.848   4.920 -0.0310 -3.3047  0.8555
  267SOL    HW2  937   0.154   4.821   4.848 -1.0304  1.8930  0.3169
  268SOL     OW  938   2.520   1.432   1.335  0.0221 -0.3826 -0.2962
  268SOL    HW1  939   2.523   1.520   1.372  0.9572 -0.5609  0.0911
  268SOL    HW2  940   2.465   1.382   1.396  0.5163 -0.3627  0.1709
  269SOL     OW  941   0.272   1.209   0.058  0.3706 -0.4545 -0.1057
  269SOL    HW1  942   0.348   1.216  -0.001  1.7772  0.4074  1.6908
  269SOL    HW2  943   0.309   1.175   0.140 -1.4888 -1.4680  0.3595
  270SOL     OW  944   2.632   4.521   3.366  0.4463  0.4797 -0.4903
  270SOL    HW1  945   2.640   4.493   3.275  1.4975  0.4487 -0.4034
  270SOL    HW2  946   2.720   4.512   3.402 -0.3324 -1.5409  1.1360
  271SOL     OW  947   0.867   1.337   0.277  0.5622  0.1300  0.4635
  271SOL    HW1  948   0.907   1.252   0.294 -1.3388 -1.3619 -1.9773
  271SOL    HW2  949   0.941   1.393   0.251  1.5667 -1.5084 -0.4120
  272SOL     OW  950   0.599   2.573   2.419  0.3291  1.2771 -0.5304
  272SOL    HW1  951   0.561   2.518   2.350  1.3168  0.7134 -0.6398
  272SOL    HW2  952   0.550   2.549   2.498  1.9935 -1.2373 -0.1540
  273SOL     OW  953   3.280   4.574   0.126 -0.2313 -0.3999  0.3014
  273SOL    HW1  954   3.187   4.567   0.104 -0.0285 -0.8720 -0.4325
  273SOL    HW2  955   3.289   4.528   0.210  0.0573 -4.1996 -1.6307
  274SOL     OW  956   4.314   2.108   1.382 -0.1375  0.4547 -0.1397
  274SOL    HW1  957   4.400   2.102   1.342 -0.0103 -1.3917  0.3598
  274SOL    HW2  958   4.321   2.061   1.465 -1.7349 -0.1294 -0.2935
  275SOL     OW  959   0.889   1.491   2.423  0.0412 -0.3248 -0.2819
  275SOL    HW1  960   0.952   1.424   2.398  1.2691  1.3749 -2.0415
  275SOL    HW2  961   0.807   1.464   2.381  0.2752 -1.1704 -0.2117
  276SOL     OW  962   0.937   4.070   1.885 -0.3893  0.3522  0.1150
  276SOL    HW1  963   0.996   4.051   1.958 -1.1316 -1.6456  0.2729
  276SOL    HW2  964   0.862   4.011   1.899 -1.4577  1.3484 -1.1896
  277SOL     OW  965   4.882   4.294   3.675 -0.2645 -0.8233  0.3938
  277SOL    HW1  966   4.849   4.369   3.626  0.7299 -0.1783  0.6687
  277SOL    HW2  967   4.900   4.228   3.608 -1.5155 -0.9755  0.1892
  278SOL     OW  968   1.251   3.372   4.491  0.4385 -0.7318 -0.5289
  278SOL    HW1  969   1.188   3.425   4.541 -0.5275 -1.6841 -0.6976
  278SOL    HW2  970   1.218   3.283   4.498  1.7815 -1.2530 -0.6566
  279SOL     OW  971   3.081   1.856   2.526 -0.0744 -0.3687  0.7500
  279SOL    HW1  972   3.035   1.781   2.564 -1.0459 -0.0254  0.2639
  279SOL    HW2  973   3.016   1.925   2.520  0.5131  0.1501  0.1129
  280SOL     OW  974   3.531   1.237   3.576 -0.3456  0.1704  0.0904
  280SOL    HW1  975   3.454   1.293   3.584 -0.1019  0.4406  0.4993
  280SOL    HW2  976   3.545   1.230   3.481 -0.2495  0.9622  0.0420
  281SOL     OW  977   1.291   0.101   2.904  0.1824 -0.8766 -0.1289
  281SOL    HW1  978   1.271   0.028   2.844 -1.5441  0.5375 -1.3925
  281SOL    HW2  979   1.250   0.076   2.987 -1.9031 -0.6841 -1.0288
  282SOL     OW  980   2.211   0.209   3.586  0.2368  0.3979  0.1032
  282SOL    HW1  981   2.155   0.218   3.509 -3.4175 -1.3123  2.2767
  282SOL    HW2  982   2.233   0.299   3.610  0.6127  1.0158 -2.2387
  283SOL     OW  983   1.965   3.160   2.941  0.2324 -0.6099  0.1797
  283SOL    HW1  984   2.030   3.226   2.964 -1.6544  0.8740  1.5928
  283SOL    HW2  985   2.013   3.077   2.943  2.1426  0.4543  0.7408
  284SOL     OW  986   3.379   0.144   3.839 -0.1110 -0.1726 -0.4089
  284SOL    HW1  987   3.421   0.199   3.773 -0.7837 -0.0931 -0.7823
  284SOL    HW2  988   3.323   0.204   3.888  1.2868  0.0156  1.0548
  285SOL     OW  989   3.081   4.186   4.202 -0.3045 -0.9607 -0.2754
  285SOL    HW1  990   3.158   4.134   4.224  1.4959  0.8271 -1.9131
  285SOL    HW2  991   3.050   4.219   4.286  1.1031 -1.2502  0.3929
  286SOL     OW  992   1.913   3.269   1.731 -0.7692 -0.2743  0.0828
  286SOL    HW1  993   1.924   3.174   1.725  0.2381 -0.1788  0.3757
  286SOL    HW2  994   1.835   3.287   1.678 -1.2549 -1.3143  0.4151
  287SOL     OW  995   0.761   2.246   3.849 -0.0758 -0.2321  0.8961
  287SOL    HW1  996   0.830   2.308   3.828  0.7559  0.1052  4.1207
  287SOL    HW2  997   0.680   2.291   3.825  0.6308  1.0296  0.7865
  288SOL     OW  998   3.931   3.624   0.307 -0.3433  0.1575  0.9668
  288SOL    HW1  999   3.841   3.592   0.303 -0.8186  1.5520 -1.3996
  288SOL    HW2 1000   3.968   3.602   0.222  1.7325 -0.6833  2.0020
  289SOL     OW 1001   0.408   1.469   4.930  0.0483  0.1964 -0.0369
  289SOL    HW1 1002   0.390   1.446   5.021  0.6221 -0.9989 -0.2111
  289SOL    HW2 1003   0.331   1.439   4.881  0.8251 -1.5481 -0.2745
  290SOL     OW 1004   4.229   1.459   1.695 -0.8392  0.2214  0.0681
  290SOL    HW1 1005   4.188   1.441   1.780  1.5518  0.2606  1.2998
  290SOL    HW2 1006   4.279   1.539   1.708  2.3188 -1.5450 -0.2846
  291SOL     OW 1007   3.839   3.328   2.270  0.5848  0.8189  0.6171
  291SOL    HW1 1008   3.820   3.248   2.221  0.0324  2.2947 -1.7385
  291SOL    HW2 1009   3.933   3.323   2.288  0.3890 -0.7904  1.4729
  292SOL     OW 1010   4.772   3.168   1.687 -0.7136  0.2366 -0.2887
  292SOL    HW1 1011   4.794   3.260   1.675  0.8230 -0.2399 -1.4824
  292SOL    HW2 1012   4.723   3.144   1.608  0.2699 -0.3352 -0.7462
  293SOL     OW 1013   0.832   1.665   2.645  0.6031 -0.1294  0.7809
  293SOL    HW1 1014   0.783   1.611   2.583 -2.1595 -0.2885  2.8993
  293SOL    HW2 1015   0.911   1.615   2.663  0.8037 -0.7206 -1.5302
  294SOL     OW 1016   0.126   2.653   0.259 -0.0562  0.0742 -0.6769
  294SOL    HW1 1017   0.167   2.735   0.230  0.8743  0.0122  0.4080
  294SOL    HW2 1018   0.176   2.584   0.215  0.4481  0.0256 -0.0286
  295SOL     OW 1019   4.783   0.477   1.336 -0.1337 -0.4775 -0.2865
  295SOL    HW1 1020   4.790   0.390   1.296 -0.7177 -0.0453 -1.3562
  295SOL    HW2 1021   4.691   0.501   1.326  0.2692  0.8069 -1.1978
  296SOL     OW 1022   4.791   0.243   1.898  0.2717  0.3005 -0.4664
  296SOL    HW1 1023   4.852   0.237   1.972  0.9237  0.6363 -0.9689
  296SOL    HW2 1024   4.840   0.288   1.830 -0.3895  0.1654 -1.0436
  297SOL     OW 1025   0.581   0.335   2.632 -0.3300  0.7693 -0.2787
  297SOL    HW1 1026   0.604   0.409   2.688 -0.5335 -0.6967  1.8238
  297SOL    HW2 1027   0.501   0.300   2.669  0.7125 -1.6075 -0.0833
  298SOL     OW 1028   4.530   0.459   0.411 -0.1132 -0.3578 -0.3647
  298SOL    HW1 1029   4.609   0.406   0.399 -1.4267 -2.2004 -1.2687
  298SOL    HW2 1030   4.482   0.450   0.329 -1.8613 -0.3077  0.5993
  299SOL     OW 1031   0.039   2.611   0.519 -0.2563  0.1801 -0.0592
  299SOL    HW1 1032   0.001   2.695   0.545  0.2625  0.5183 -0.3823
  299SOL    HW2 1033   0.075   2.627   0.431 -0.0073 -0.3305 -0.0521
  300SOL     OW 1034   0.999   0.959   3.911  0.6775  0.1093 -0.4736
  300SOL    HW1 1035   0.978   0.980   4.002  1.2748  0.3090 -0.3795
  300SOL    HW2 1036   1.027   0.868   3.914  1.2890  0.2997 -0.3595
  301SOL     OW 1037   4.801   4.011   2.248 -0.0899  0.5014  0.0684
  301SOL    HW1 1038   4.885   4.008   2.294 -0.9538 -0.2177  1.6671
  301SOL    HW2 1039   4.783   3.920   2.225  0.3145  0.8370 -1.7686
  302SOL     OW 1040   2.560   4.319   2.242  0.6069 -0.3426 -0.0301
  302SOL    HW1 1041   2.527   4.408   2.247 -1.8405 -0.8725 -3.4010
  302SOL    HW2 1042   2.544   4.292   2.151  4.2108 -3.1692 -0.0931
  303SOL     OW 1043   0.820   2.351   2.746 -0.0308  0.0384  0.1807
  303SOL    HW1 1044   0.846   2.292   2.817  0.4557  0.1937  0.1342
  303SOL    HW2 1045   0.900   2.366   2.697 -0.8115 -2.0473 -1.8991
  304SOL     OW 1046   1.973   1.784   0.940  0.2316  0.0700 -0.0294
  304SOL    HW1 1047   1.892   1.751   0.902  0.0933 -1.5328  1.5074
  304SOL    HW2 1048   2.039   1.717   0.919  1.0697  1.1318 -0.8743
  305SOL     OW 1049   3.377   2.049   2.329  0.8695  0.2193 -0.1318
  305SOL    HW1 1050   3.433   2.079   2.257  0.5829 -0.3711 -0.6032
  305SOL    HW2 1051   3.439   2.017   2.395  1.2052  2.1081  0.5308
  306SOL     OW 1052   3.856   1.764   0.720 -0.3610 -0.0392 -0.2511
  306SOL    HW1 1053   3.909   1.781   0.797 -1.5004  3.5814 -0.0689
  306SOL    HW2 1054   3.908   1.704   0.667  2.0417  0.2010  1.6788
  307SOL     OW 1055   3.553   4.199   2.404 -0.1006 -0.5832 -0.2004
  307SOL    HW1 1056   3.581   4.198   2.496 -1.6324  1.3310  0.3417
  307SOL    HW2 1057   3.578   4.113   2.371 -0.7129 -1.8496  2.3828
  308SOL     OW 1058   3.243   4.889   3.889 -0.2412  0.3404  0.4928
  308SOL    HW1 1059   3.320   4.833   3.892 -0.4214 -0.3105 -2.9181
  308SOL    HW2 1060   3.278   4.977   3.879  0.0968  0.1239 -0.3129
  309SOL     OW 1061   4.684   1.673   3.623  0.6474  0.1603 -0.1909
  309SOL    HW1 1062   4.746   1.601   3.618 -2.1901 -2.4589 -1.2264
  309SOL    HW2 1063   4.632   1.655   3.701  1.2853  2.4829  0.8688
  310SOL     OW 1064   3.225   4.385   4.083  0.4490  0.9051 -0.2994
  310SOL    HW1 1065   3.161   4.318   4.105 -1.5231  3.3559  2.1131
  310SOL    HW2 1066   3.264   4.355   4.001 -2.9987 -1.2985 -1.3514
  311SOL     OW 1067   4.324   0.114   1.217  0.4260 -0.2553  0.3065
  311SOL    HW1 1068   4.419   0.130   1.214  0.4467 -0.4546 -0.3734
  311SOL    HW2 1069   4.316   0.030   1.263  0.5490 -0.0495  0.7110
  312SOL     OW 1070   1.067   0.830   4.619  0.2944 -0.1910  0.3082
  312SOL    HW1 1071   0.977   0.798   4.630  0.0025  1.0277  1.9186
  312SOL    HW2 1072   1.107   0.817   4.705  1.8037 -1.0249 -0.4836
  313SOL     OW 1073   2.502   0.522   4.386 -0.1134 -0.0694 -0.3219
  313SOL    HW1 1074   2.411   0.495   4.400  0.3298 -1.4361  0.1146
  313SOL    HW2 1075   2.522   0.492   4.297 -0.2625  0.7688 -0.6443
  314SOL     OW 1076   0.446   2.691   0.893 -0.1297 -0.2179  0.0136
  314SOL    HW1 1077   0.505   2.737   0.953 -1.0373  1.2078 -0.1405
  314SOL    HW2 1078   0.363   2.685   0.941 -1.6018  3.0434 -1.8315
  315SOL     OW 1079   3.571   3.356   4.107 -0.0566 -0.0089  0.8501
  315SOL    HW1 1080   3.549   3.442   4.071  1.3087 -0.5831 -1.5565
  315SOL    HW2 1081   3.644   3.372   4.166  0.3137  0.4814  0.2680
  316SOL     OW 1082   1.692   0.355   1.741  0.0028 -0.3625  0.3340
  316SOL    HW1 1083   1.761   0.327   1.681 -0.0430 -0.0035  0.1077
  316SOL    HW2 1084   1.708   0.306   1.821  0.6644 -0.1109  0.3632
  317SOL     OW 1085   1.409   2.640   2.628 -0.1054 -0.4801 -0.5549
  317SOL    HW1 1086   1.482   2.676   2.578 -0.6615 -1.4800 -2.1841
  317SOL    HW2 1087   1.421   2.545   2.622 -0.2631 -0.6297  1.1414
  318SOL     OW 1088   0.978   0.633   3.528 -0.5798 -0.5957  0.6173
  318SOL    HW1 1089   1.033   0.701   3.568  0.1463 -0.7371 -0.1227
  318SOL    HW2 1090   0.888   0.667   3.537 -0.1408  1.2313 -1.1351
  319SOL     OW 1091   3.069   1.058   0.995  0.4994 -0.3855  0.0358
  319SOL    HW1 1092   3.106   1.146   0.998  1.2353 -0.6977  1.0831
  319SOL    HW2 1093   3.103   1.016   1.074 -0.5630 -1.3238  0.0131
  320SOL     OW 1094   2.034   0.009   4.668  0.3595  0.1577 -0.3542
  320SOL    HW1 1095   2.058   0.058   4.746 -0.9234 -1.1638  0.9280
  320SOL    HW2 1096   1.939   0.002   4.672  0.2358  0.2419 -2.1677
  321SOL     OW 1097   0.107   3.919   0.248  0.6337 -0.0643  0.2075
  321SOL    HW1 1098   0.178   3.885   0.193 -0.6754 -2.5948 -0.0778
  321SOL    HW2 1099   0.039   3.946   0.185  0.9018  1.4114  0.5077
  322SOL     OW 1100   2.810   1.197   0.887  0.0101 -0.2407  0.2725
  322SOL    HW1 1101   2.755   1.167   0.959 -0.8321  1.1529  0.2543
  322SOL    HW2 1102   2.898   1.164   0.908 -0.2822 -0.1249  1.7760
  323SOL     OW 1103   4.541   3.873   2.025 -0.5195  0.3061  0.3807
  323SOL    HW1 1104   4.525   3.909   2.112 -1.8609  0.7732 -0.0363
  323SOL    HW2 1105   4.632   3.844   2.028 -0.2002  1.3295  1.5729
  324SOL     OW 1106   1.404   1.183   4.064  0.5131  0.1394  0.1480
  324SOL    HW1 1107   1.320   1.143   4.087  0.3109 -1.1392 -2.4097
  324SOL    HW2 1108   1.469   1.127   4.107  0.1166 -0.8289 -0.4768
  325SOL     OW 1109   0.638   4.196   3.912  0.4685 -0.0770  0.1801
  325SOL    HW1 1110   0.643   4.205   3.817 -2.4504  0.1450 -0.0396
  325SOL    HW2 1111   0.553   4.155   3.928  0.5643  0.5239  2.7431
  326SOL     OW 1112   0.687   3.011   0.084 -0.2799 -0.0456 -0.8419
  326SOL    HW1 1113   0.666   2.923   0.054 -0.7470 -0.7075  1.2389
  326SOL    HW2 1114   0.616   3.065   0.049 -0.5170 -0.6708 -1.3540
  327SOL     OW 1115   3.510   1.752   2.055 -0.8964 -0.0060  0.0641
  327SOL    HW1 1116   3.481   1.831   2.103 -1.2427 -0.1376  0.0738
  327SOL    HW2 1117   3.490   1.680   2.115 -3.0747 -0.3597 -1.0002
  328SOL     OW 1118   4.064   0.296   0.485 -0.5529  0.2097 -0.0209
  328SOL    HW1 1119   3.980   0.255   0.506 -0.6324  0.8201  0.9326
  328SOL    HW2 1120   4.044   0.390   0.479 -0.1028  0.2690 -0.6829
  329SOL     OW 1121   2.942   4.733   1.422  0.1473  0.3841 -0.1147
  329SOL    HW1 1122   2.952   4.820   1.460 -1.0924  1.0775 -1.3091
  329SOL    HW2 1123   2.850   4.726   1.400  0.1502 -1.3995  0.2946
  330SOL     OW 1124   3.491   0.019   0.049 -0.1477  0.5599  0.0346
  330SOL    HW1 1125   3.538  -0.016  -0.027 -1.3337  0.5445 -0.7093
  330SOL    HW2 1126   3.559   0.062   0.101  1.1326 -1.5893  0.2630
  331SOL     OW 1127   1.634   0.988   3.230  0.1670 -0.4162 -0.1372
  331SOL    HW1 1128   1.686   0.959   3.305 -0.7430 -0.7250  0.3822
  331SOL    HW2 1129   1.651   0.922   3.163  1.3997  0.1444 -0.4059
  332SOL     OW 1130   0.970   3.049   3.082 -0.1466  0.1802 -0.4070
  332SOL    HW1 1131   0.874   3.059   3.081 -0.0822  1.2464  0.8300
  332SOL    HW2 1132   0.985   2.979   3.146 -0.1338 -1.1656 -1.8095
  333SOL     OW 1133   1.489   3.541   4.595  0.2703 -0.1239  0.6962
  333SOL    HW1 1134   1.438   3.607   4.641  1.2551 -1.3254  3.7935
  333SOL    HW2 1135   1.440   3.523   4.515 -1.4928  2.2353  1.1510
  334SOL     OW 1136   3.704   2.815   2.683 -0.3046  0.7701  0.0269
  334SOL    HW1 1137   3.625   2.832   2.632  0.6758  1.6612 -1.2552
  334SOL    HW2 1138   3.677   2.823   2.774 -2.0764 -0.7296 -0.3208
  335SOL     OW 1139   2.542   0.599   3.227 -0.7371  0.2219  0.1103
  335SOL    HW1 1140   2.470   0.536   3.226 -0.5717  0.0087  0.9573
  335SOL    HW2 1141   2.568   0.607   3.135 -1.1497 -0.4879 -0.0773
  336SOL     OW 1142   1.073   0.738   3.131 -0.0143 -0.0996 -0.8054
  336SOL    HW1 1143   1.137   0.800   3.167 -0.9282  0.0973  0.5593
  336SOL    HW2 1144   1.059   0.767   3.041  1.8870 -0.2256 -1.1876
  337SOL     OW 1145   0.508   2.687   3.621 -0.0810 -0.3862 -0.0773
  337SOL    HW1 1146   0.554   2.604   3.635  0.9787 -0.1605 -1.8899
  337SOL    HW2 1147   0.478   2.682   3.530 -0.5091  0.9853 -0.0275
  338SOL     OW 1148   2.379   3.863   4.188  0.3023 -0.0198 -0.4096
  338SOL    HW1 1149   2.439   3.911   4.131  3.0657 -0.5068  1.8866
  338SOL    HW2 1150   2.380   3.774   4.155  1.8281 -0.2814  0.2843
  339SOL     OW 1151   1.803   4.345   0.484  0.0330 -0.3497 -0.1176
  339SOL    HW1 1152   1.749   4.402   0.428  1.8856 -0.4091 -2.0646
  339SOL    HW2 1153   1.820   4.268   0.431  0.2575 -1.2999  1.2888
  340SOL     OW 1154   2.286   4.431   3.257 -0.5982  0.3357 -0.3896
  340SOL    HW1 1155   2.288   4.401   3.348  0.3195  1.3364 -0.0547
  340SOL    HW2 1156   2.335   4.365   3.209 -0.6036  0.0946 -0.0695
  341SOL     OW 1157   2.407   2.313   0.231  0.2064 -0.3699  0.5945
  341SOL    HW1 1158   2.344   2.315   0.159  1.2604  0.9674 -0.3540
  341SOL    HW2 1159   2.471   2.381   0.209  1.8946 -1.5364  1.5948
  342SOL     OW 1160   1.073   3.528   4.649 -0.0406  0.6473  0.3982
  342SOL    HW1 1161   1.053   3.469   4.721  1.1231 -0.1905  0.0644
  342SOL    HW2 1162   1.053   3.615   4.683 -1.8207  0.0901  0.8907
  343SOL     OW 1163   4.814   4.391   1.471 -0.1404 -0.0789 -0.3074
  343SOL    HW1 1164   4.772   4.401   1.386 -0.2751  0.4793 -0.1818
  343SOL    HW2 1165   4.800   4.300   1.494 -0.7962 -0.0401 -0.5248
  344SOL     OW 1166   4.554   3.997   1.322 -0.2109  0.0070 -0.5310
  344SOL    HW1 1167   4.536   3.978   1.230 -1.7710 -0.7633 -0.0972
  344SOL    HW2 1168   4.481   3.957   1.370  0.3311  0.7834  1.0147
  345SOL     OW 1169   3.335   2.736   3.736 -0.0314 -0.9720 -0.0276
  345SOL    HW1 1170   3.275   2.684   3.790 -0.5512 -0.0380  0.3048
  345SOL    HW2 1171   3.394   2.778   3.798  0.7792 -1.6273 -0.3361
  346SOL     OW 1172   3.662   0.710   2.612 -0.0232  0.4043  0.1106
  346SOL    HW1 1173   3.756   0.703   2.596 -0.3294 -1.8103 -1.0227
  346SOL    HW2 1174   3.642   0.640   2.675 -0.8769  1.1318  0.6921
  347SOL     OW 1175   4.785   3.007   0.190  0.0411  0.1742 -0.6041
  347SOL    HW1 1176   4.690   3.016   0.198  0.1838  0.3561  1.6714
  347SOL    HW2 1177   4.800   2.912   0.187 -0.1976  0.1268 -0.3414
  348SOL     OW 1178   4.364   1.973   1.884  0.4458  0.6399  0.2747
  348SOL    HW1 1179   4.375   1.910   1.955 -0.5844  0.9900  0.7674
  348SOL    HW2 1180   4.451   2.012   1.872  0.9277 -0.3573  0.4358
  349SOL     OW 1181   0.107   4.302   2.488  0.3791 -0.0958  0.3460
  349SOL    HW1 1182   0.093   4.339   2.401  0.1471  4.1142  1.9494
  349SOL    HW2 1183   0.022   4.265   2.513 -0.6888  2.0908  0.1520
  350SOL     OW 1184   2.101   4.525   0.536 -0.6096  0.3181 -0.3295
  350SOL    HW1 1185   2.012   4.494   0.554 -0.5055  0.5570  0.6396
  350SOL    HW2 1186   2.127   4.478   0.456 -1.4528 -0.0473 -0.3977
  351SOL     OW 1187   1.358   2.096   4.182 -0.3275 -0.1569  0.4936
  351SOL    HW1 1188   1.369   2.045   4.262 -1.1807 -0.4587  0.4279
  351SOL    HW2 1189   1.343   2.185   4.212 -0.7726 -0.2927  0.6728
  352SOL     OW 1190   1.051   4.691   2.476  0.1511 -0.7379 -0.4712
  352SOL    HW1 1191   1.071   4.776   2.438  2.7187 -1.2609 -0.5037
  352SOL    HW2 1192   1.015   4.711   2.562  1.3091  0.4250 -0.2229
  353SOL     OW 1193   2.079   3.927   0.933  0.3218 -0.4295 -0.0485
  353SOL    HW1 1194   2.052   3.982   0.860  1.6308 -0.3314 -0.4936
  353SOL    HW2 1195   2.151   3.976   0.975  0.6111 -1.1838  0.3627
  354SOL     OW 1196   1.655   4.022   1.312  0.1508  0.1619  0.2746
  354SOL    HW1 1197   1.608   4.048   1.391 -1.1890  1.5751 -0.9143
  354SOL    HW2 1198   1.727   4.085   1.305  0.7651 -0.4692  0.7773
  355SOL     OW 1199   0.863   4.638   0.945 -0.3531  0.3953 -0.5913
  355SOL    HW1 1200   0.870   4.676   0.857  1.5210 -0.5111 -0.8874
  355SOL    HW2 1201   0.903   4.704   1.002  3.8954 -1.2555 -1.2319
  356SOL     OW 1202   3.531   4.868   1.930 -0.1288 -0.1940 -0.1315
  356SOL    HW1 1203   3.536   4.926   2.006  0.6795 -2.0103  1.2802
  356SOL    HW2 1204   3.483   4.792   1.962 -1.2726 -0.2977 -1.9715
  357SOL     OW 1205   0.446   4.950   3.739  0.0852  0.5606 -0.5416
  357SOL    HW1 1206   0.533   4.950   3.699 -0.0769 -0.3468 -0.9189
  357SOL    HW2 1207   0.445   5.028   3.794  0.8744  0.9852 -1.1014
  358SOL     OW 1208   4.220   0.221   0.261 -0.5182 -0.0963 -0.0894
  358SOL    HW1 1209   4.196   0.294   0.204  1.2328 -0.0423 -0.8214
  358SOL    HW2 1210   4.186   0.246   0.347 -1.4651  0.7583 -0.6830
  359SOL     OW 1211   2.435   1.166   0.475  0.1932 -0.1030 -0.5632
  359SOL    HW1 1212   2.442   1.261   0.480 -1.1441 -0.0494  1.9925
  359SOL    HW2 1213   2.505   1.133   0.531  0.5981 -0.6570 -1.3649
  360SOL     OW 1214   2.738   4.137   2.017  0.1635  0.0826  0.2840
  360SOL    HW1 1215   2.826   4.165   1.990  0.4593 -0.3434  0.7904
  360SOL    HW2 1216   2.748   4.045   2.039 -0.3434  0.1107  0.6432
  361SOL     OW 1217   3.132   1.865   1.613  0.0025  0.2481  0.1515
  361SOL    HW1 1218   3.180   1.896   1.536  1.3751 -2.0945 -0.0114
  361SOL    HW2 1219   3.199   1.849   1.679 -0.7481 -1.1212  0.6301
  362SOL     OW 1220   0.725   2.778   4.936  0.5051 -0.2472 -0.7694
  362SOL    HW1 1221   0.678   2.697   4.958  1.3756 -0.2989  1.1000
  362SOL    HW2 1222   0.678   2.814   4.861 -0.8124 -1.7082 -0.6875
  363SOL     OW 1223   1.135   4.454   1.692 -0.3759  0.0861  0.4262
  363SOL    HW1 1224   1.162   4.518   1.758  1.4751 -0.3146  0.0936
  363SOL    HW2 1225   1.165   4.491   1.609  3.1688 -2.3315  0.4473
  364SOL     OW 1226   0.727   4.517   3.400  0.3917 -0.9047 -0.4287
  364SOL    HW1 1227   0.676   4.448   3.359  0.1624 -0.2615 -1.2661
  364SOL    HW2 1228   0.705   4.511   3.493 -0.1469 -1.5144 -0.5864
  365SOL     OW 1229   3.877   2.095   4.423  0.2879  0.3180 -0.1931
  365SOL    HW1 1230   3.810   2.092   4.355 -1.7062  0.5003  1.6200
  365SOL    HW2 1231   3.887   2.188   4.443 -1.4388  0.1609  1.7599
  366SOL     OW 1232   3.535   1.644   1.803  0.0053  0.1388 -0.7315
  366SOL    HW1 1233   3.587   1.566   1.782 -1.4093 -0.6898 -1.2676
  366SOL    HW2 1234   3.557   1.664   1.894 -2.3055 -3.1412  0.7437
  367SOL     OW 1235   1.354   5.002   0.787 -0.2142 -0.3587  0.3881
  367SOL    HW1 1236   1.285   4.936   0.796 -0.9555  0.1329 -1.3239
  367SOL    HW2 1237   1.382   4.996   0.696  1.8912 -0.3865  0.9852
  368SOL     OW 1238   0.553   2.431   0.276 -0.3679 -0.7275 -0.0711
  368SOL    HW1 1239   0.638   2.466   0.300 -0.2164  0.2118 -1.8047
  368SOL    HW2 1240   0.498   2.446   0.353  0.3530  1.0827  0.1313
  369SOL     OW 1241   4.323   3.268   3.969  0.4213 -0.2043 -0.8628
  369SOL    HW1 1242   4.331   3.205   3.897 -1.1824 -1.3705 -0.0774
  369SOL    HW2 1243   4.230   3.268   3.990  1.0458 -1.4769  2.5435
  370SOL     OW 1244   2.972   0.302   1.768 -0.2848 -0.2980  0.2272
  370SOL    HW1 1245   3.049   0.283   1.714 -1.2134 -1.7853 -0.6658
  370SOL    HW2 1246   2.991   0.260   1.852 -0.1036 -0.6200  0.0291
  371SOL     OW 1247   2.328   4.205   3.129  0.1706 -0.2509  0.1086
  371SOL    HW1 1248   2.389   4.200   3.055  1.9379  3.0831  1.1493
  371SOL    HW2 1249   2.384   4.193   3.206 -0.9675  0.1127  1.0108
  372SOL     OW 1250   4.442   0.548   3.815 -0.5523 -0.4658  0.0817
  372SOL    HW1 1251   4.350   0.553   3.790  0.0083  1.6411 -1.9606
  372SOL    HW2 1252   4.463   0.636   3.846  1.2302 -0.2587 -1.5130
  373SOL     OW 1253   3.583   3.724   1.710  0.0731 -0.6578  0.2203
  373SOL    HW1 1254   3.506   3.773   1.739  0.9562 -0.7526  3.1033
  373SOL    HW2 1255   3.551   3.665   1.642 -1.8068  1.1549 -0.5539
  374SOL     OW 1256   4.213   1.811   0.145  0.1251 -0.0885  0.2603
  374SOL    HW1 1257   4.265   1.735   0.119 -0.1200  0.4691 -2.0000
  374SOL    HW2 1258   4.231   1.821   0.239 -1.4691 -4.2207  1.2514
  375SOL     OW 1259   1.673   2.584   1.462  0.0585  0.0571 -0.0450
  375SOL    HW1 1260   1.726   2.510   1.492  1.7021  1.1643 -0.0679
  375SOL    HW2 1261   1.664   2.639   1.539  0.8811  0.9633 -0.5751
  376SOL     OW 1262   3.699   3.454   2.563  0.0893 -0.7943 -0.1622
  376SOL    HW1 1263   3.794   3.448   2.555  0.0440 -1.1465 -0.4863
  376SOL    HW2 1264   3.671   3.365   2.584 -0.2069 -0.7846 -0.4997
  377SOL     OW 1265   0.277   4.241   3.022  0.5459 -0.1125  0.5557
  377SOL    HW1 1266   0.228   4.314   2.984  1.7664  0.0594 -0.7660
  377SOL    HW2 1267   0.369   4.265   3.011  1.1070 -2.9306 -2.3350
  378SOL     OW 1268   3.863   4.244   2.301  0.5279 -0.0039 -0.0253
  378SOL    HW1 1269   3.847   4.208   2.389 -1.4624 -0.9858 -0.7182
  378SOL    HW2 1270   3.813   4.326   2.300 -0.7081 -0.7319 -0.6790
  379SOL     OW 1271   2.178   3.481   2.386 -0.4798  0.3151  0.0816
  379SOL    HW1 1272   2.238   3.504   2.316  0.1582 -0.9818  0.1836
  379SOL    HW2 1273   2.235   3.454   2.459 -1.1626 -0.3389  0.3854
  380SOL     OW 1274   1.439   2.903   2.094  0.2544 -0.6123 -1.0112
  380SOL    HW1 1275   1.383   2.977   2.117  0.0815 -0.7307 -1.0503
  380SOL    HW2 1276   1.414   2.834   2.156  2.0824  0.1074  0.6504
  381SOL     OW 1277   1.082   1.973   3.787  0.3823 -0.8436 -0.3078
  381SOL    HW1 1278   0.996   1.934   3.804  0.6382 -0.6748  1.5825
  381SOL    HW2 1279   1.078   1.999   3.695 -0.6797 -3.0757 -0.9731
  382SOL     OW 1280   3.326   1.383   3.452  0.1770  0.5915  0.1619
  382SOL    HW1 1281   3.247   1.428   3.423 -0.0103 -1.1484 -2.3183
  382SOL    HW2 1282   3.391   1.402   3.385  0.6375 -1.2555  0.0488
  383SOL     OW 1283   2.766   4.282   2.976 -0.3003 -0.0551  0.6318
  383SOL    HW1 1284   2.694   4.229   2.942  1.6120 -2.0354 -0.5548
  383SOL    HW2 1285   2.784   4.346   2.906 -0.2183 -0.2722  0.4526
  384SOL     OW 1286   0.092   3.922   2.246  0.0394  0.0877 -1.0065
  384SOL    HW1 1287   0.122   4.005   2.210 -0.7304  1.1330  0.6836
  384SOL    HW2 1288   0.065   3.872   2.168 -1.2393  2.1219 -1.9583
  385SOL     OW 1289   3.075   3.923   1.920 -0.4986 -0.0107 -0.5066
  385SOL    HW1 1290   3.143   3.980   1.884 -0.0616  0.6731  1.2676
  385SOL    HW2 1291   3.119   3.874   1.990 -1.5935 -0.2533  0.0407
  386SOL     OW 1292   4.372   4.592   2.701 -0.1547  0.3324 -0.0928
  386SOL    HW1 1293   4.356   4.629   2.614 -0.1377  0.9543  0.1628
  386SOL    HW2 1294   4.324   4.509   2.701  0.6872 -0.1747 -1.0537
  387SOL     OW 1295   2.213   1.340   0.629 -0.2706 -0.2961 -0.4329
  387SOL    HW1 1296   2.305   1.360   0.608 -0.3145 -0.1964 -0.5368
  387SOL    HW2 1297   2.165   1.416   0.596 -0.3611 -0.2170 -0.1188
  388SOL     OW 1298   1.899   1.936   2.755  0.4494  0.4829 -0.0851
  388SOL    HW1 1299   1.947   1.928   2.837  2.3338  1.1177 -1.0449
  388SOL    HW2 1300   1.962   1.908   2.688 -0.8504  0.4826 -1.3536
  389SOL     OW 1301   3.901   3.796   4.929 -0.3373  0.5216 -0.0533
  389SOL    HW1 1302   3.906   3.861   4.999  0.7117 -1.1115  1.4696
  389SOL    HW2 1303   3.990   3.793   4.893 -1.1766  2.3549 -2.5012
  390SOL     OW 1304   3.159   0.246   0.656  0.1943 -0.9605  0.5710
  390SOL    HW1 1305   3.228   0.235   0.591 -1.5682 -1.9532 -1.2346
  390SOL    HW2 1306   3.162   0.166   0.708 -1.0469 -2.0923 -1.0207
  391SOL     OW 1307   3.895   3.716   3.737  0.1356 -0.2029 -0.1409
  391SOL    HW1 1308   3.931   3.697   3.651  1.6526 -0.2514  0.4732
  391SOL    HW2 1309   3.960   3.683   3.799 -1.1035 -0.5446  1.0472
  392SOL     OW 1310   3.177   4.666   2.614  0.0823 -0.0427  0.0228
  392SOL    HW1 1311   3.215   4.619   2.689  1.3676 -1.8563 -1.6738
  392SOL    HW2 1312   3.106   4.610   2.584 -1.0125  1.1143  0.3928
  393SOL     OW 1313   3.601   2.148   2.505  0.1699 -0.2330  0.4193
  393SOL    HW1 1314   3.629   2.238   2.520  0.9319 -0.5943  1.2904
  393SOL    HW2 1315   3.622   2.130   2.414 -0.0867  0.5010  0.2127
  394SOL     OW 1316   4.465   3.196   1.997 -0.2983  0.8895 -0.8169
  394SOL    HW1 1317   4.374   3.197   1.967 -1.0327  0.0943  1.1942
  394SOL    HW2 1318   4.501   3.115   1.962 -0.6763  0.6966 -0.7695
  395SOL     OW 1319   0.807   0.504   0.795  0.3245 -0.5679  0.3773
  395SOL    HW1 1320   0.808   0.413   0.765 -1.4150 -1.1654  1.9341
  395SOL    HW2 1321   0.855   0.552   0.727  0.5197 -2.4933 -0.9379
  396SOL     OW 1322   3.740   2.317   2.270 -0.1953  0.3056  0.0199
  396SOL    HW1 1323   3.749   2.411   2.251  1.1898  0.7601  2.4635
  396SOL    HW2 1324   3.722   2.314   2.364 -0.1112 -1.9076  0.0052
  397SOL     OW 1325   0.482   1.552   3.396  0.1811  0.2128 -0.3163
  397SOL    HW1 1326   0.524   1.523   3.477 -0.8115 -0.7759 -0.1337
  397SOL    HW2 1327   0.497   1.646   3.394  0.7097  0.1681  0.7217
  398SOL     OW 1328   1.997   3.661   0.827  0.1728 -0.8292  0.5147
  398SOL    HW1 1329   2.006   3.676   0.733 -1.1020 -0.8209  0.3731
  398SOL    HW2 1330   1.988   3.748   0.865 -0.5676 -0.8838  0.4830
  399SOL     OW 1331   1.856   2.036   0.878  0.7445 -0.0702  0.2034
  399SOL    HW1 1332   1.898   1.954   0.904  0.5925 -0.4579 -0.7272
  399SOL    HW2 1333   1.865   2.038   0.783 -1.7894 -0.4206 -0.1165
  400SOL     OW 1334   2.450   3.767   1.572 -0.6747 -0.4629  0.4677
  400SOL    HW1 1335   2.434   3.704   1.501  0.4691 -0.8651  0.5476
  400SOL    HW2 1336   2.367   3.814   1.581 -1.0313 -0.8204 -0.7252
  401SOL     OW 1337   4.319   1.815   1.028 -0.2656  0.0586  0.1435
  401SOL    HW1 1338   4.264   1.868   1.085 -0.7921  0.3972 -0.6742
  401SOL    HW2 1339   4.307   1.725   1.060  0.8083  0.4218  1.6784
  402SOL     OW 1340   4.896   2.838   0.508  0.5407  0.5252  0.1486
  402SOL    HW1 1341   4.831   2.787   0.460 -1.0753  1.4352  1.3037
  402SOL    HW2 1342   4.850   2.918   0.533  1.4490  0.2839  2.8081
  403SOL     OW 1343   0.329   3.108   2.120 -0.4792 -0.4769  0.4081
  403SOL    HW1 1344   0.347   3.159   2.199  0.9106  0.5894 -0.5538
  403SOL    HW2 1345   0.256   3.153   2.078  3.1742  3.4571 -2.5313
  404SOL     OW 1346   3.728   2.296   1.552 -0.1730  0.4541  0.3828
  404SOL    HW1 1347   3.723   2.374   1.497  0.6243  0.9521  0.9898
  404SOL    HW2 1348   3.699   2.225   1.495 -0.2325  1.0819 -0.3997
  405SOL     OW 1349   2.092   4.790   1.341 -0.1327 -0.0194  0.6689
  405SOL    HW1 1350   2.182   4.759   1.349  0.1454  0.3059 -0.9067
  405SOL    HW2 1351   2.048   4.722   1.289 -0.0809  1.0657 -0.8699
  406SOL     OW 1352   2.424   2.493   3.274 -0.2100 -0.1213  0.6167
  406SOL    HW1 1353   2.399   2.583   3.296  0.2526 -0.1743  1.4189
  406SOL    HW2 1354   2.421   2.489   3.179 -1.1359  0.4776  0.6126
  407SOL     OW 1355   1.041   3.803   3.097 -0.2419 -0.2736 -0.0251
  407SOL    HW1 1356   0.977   3.754   3.148 -1.4210 -0.1137 -1.2861
  407SOL    HW2 1357   1.097   3.846   3.162 -2.3009  0.7594  1.1738
  408SOL     OW 1358   1.891   1.791   1.565 -0.0323  0.7708 -0.0214
  408SOL    HW1 1359   1.952   1.784   1.638 -0.1311  1.8570  0.1870
  408SOL    HW2 1360   1.867   1.884   1.562 -3.0776  0.1447  1.0525
  409SOL     OW 1361   4.866   3.420   1.587  0.3942  0.3637 -0.2019
  409SOL    HW1 1362   4.954   3.427   1.625  0.3149 -0.5637  0.1765
  409SOL    HW2 1363   4.874   3.460   1.500  1.4589 -0.6820 -0.6008
  410SOL     OW 1364   0.179   2.646   2.506  0.2344  0.2600  0.3205
  410SOL    HW1 1365   0.114   2.576   2.497 -0.9006  0.8575  2.7982
  410SOL    HW2 1366   0.262   2.600   2.520 -0.0145 -0.5377 -0.7061
  411SOL     OW 1367   0.040   0.008   1.588 -0.4729 -0.0834 -0.2083
  411SOL    HW1 1368   0.089   0.070   1.642  0.5381 -0.1992 -0.9652
  411SOL    HW2 1369   0.077  -0.077   1.612 -0.9062 -0.2605 -0.1679
  412SOL     OW 1370   3.045   4.737   1.879 -0.1359 -0.4309  0.6173
  412SOL    HW1 1371   3.101   4.702   1.810  0.8064 -0.2850  1.2860
  412SOL    HW2 1372   3.006   4.660   1.919  0.5997 -0.6334  0.9737
  413SOL     OW 1373   0.799   4.607   4.897 -0.4532  0.3344 -0.1242
  413SOL    HW1 1374   0.797   4.614   4.993 -1.3176  2.4684 -0.2612
  413SOL    HW2 1375   0.709   4.586   4.873 -0.3117  0.1615 -0.5160
  414SOL     OW 1376   1.976   2.190   0.119  0.2280 -0.4175 -0.5067
  414SOL    HW1 1377   1.983   2.250   0.194 -1.8591 -0.5839 -0.1354
  414SOL    HW2 1378   2.057   2.205   0.070  0.2560  1.9783  0.1112
  415SOL     OW 1379   0.353   2.869   4.876  0.2060  0.3856  0.3499
  415SOL    HW1 1380   0.335   2.787   4.829 -1.9712  1.5289 -0.9857
  415SOL    HW2 1381   0.356   2.936   4.808 -1.7958  1.9212  1.6267
  416SOL     OW 1382   3.533   1.242   1.947 -0.3636 -0.4174 -0.4942
  416SOL    HW1 1383   3.605   1.221   2.006  0.4964  1.1589 -0.9189
  416SOL    HW2 1384   3.505   1.158   1.911 -0.5436 -1.3578  1.6902
  417SOL     OW 1385   3.024   3.753   4.132 -0.0839 -0.4751  0.3422
  417SOL    HW1 1386   2.932   3.780   4.125  0.2341  0.7161  0.5894
  417SOL    HW2 1387   3.040   3.744   4.226  0.6897  1.7309  0.4776
  418SOL     OW 1388   1.337   2.732   1.079  0.0233  0.4941 -0.0774
  418SOL    HW1 1389   1.381   2.705   1.160  1.1393 -0.4683 -0.9682
  418SOL    HW2 1390   1.340   2.828   1.081 -0.5270  0.5112  1.2915
  419SOL     OW 1391   4.850   3.268   4.411 -0.2567 -0.0815 -0.1318
  419SOL    HW1 1392   4.784   3.206   4.444  0.8664 -1.6697 -0.7379
  419SOL    HW2 1393   4.827   3.279   4.318 -0.7846  0.8717  0.1066
  420SOL     OW 1394   3.860   3.095   3.899 -0.1825  0.1708  0.1372
  420SOL    HW1 1395   3.797   3.155   3.859 -0.2219 -0.0286 -0.0982
  420SOL    HW2 1396   3.839   3.098   3.993 -0.4600  0.2011  0.0742
  421SOL     OW 1397   3.720   1.852   2.782 -0.2414 -0.3974 -0.3509
  421SOL    HW1 1398   3.634   1.815   2.803  0.0271 -0.2680  1.1073
  421SOL    HW2 1399   3.782   1.787   2.815  0.2509 -0.8353 -2.0373
  422SOL     OW 1400   2.131   2.568   1.283  0.2786 -0.0913 -0.1796
  422SOL    HW1 1401   2.107   2.610   1.365 -0.7713 -1.3805  0.1947
  422SOL    HW2 1402   2.225   2.552   1.290  0.3514  0.5594  0.3995
  423SOL     OW 1403   3.051   1.119   2.536  0.5495  0.3304  0.0707
  423SOL    HW1 1404   3.114   1.145   2.604 -1.2381  1.3883  1.4120
  423SOL    HW2 1405   3.039   1.025   2.550  1.7975  0.1132 -0.2066
  424SOL     OW 1406   3.867   1.224   1.718 -0.1584 -0.5301  0.1103
  424SOL    HW1 1407   3.773   1.206   1.708 -0.2806  0.6370 -1.1434
  424SOL    HW2 1408   3.878   1.244   1.811 -0.2320 -5.4225  1.4449
  425SOL     OW 1409   3.362   3.862   2.705 -0.4939  0.3011  0.1333
  425SOL    HW1 1410   3.391   3.867   2.796 -0.6368  1.1007  0.1425
  425SOL    HW2 1411   3.442   3.868   2.653 -0.4290  0.0356  0.2043
  426SOL     OW 1412   1.343   3.137   3.573 -0.5881 -0.1408  0.0122
  426SOL    HW1 1413   1.378   3.102   3.491  0.5976  1.5991 -0.2723
  426SOL    HW2 1414   1.378   3.080   3.641  0.8505  0.1205 -0.4808
  427SOL     OW 1415   2.957   3.411   4.199 -0.1624 -0.4578 -0.1358
  427SOL    HW1 1416   2.931   3.473   4.131  0.8921  0.4529  0.2496
  427SOL    HW2 1417   2.897   3.338   4.190 -1.8730  0.8972 -0.1958
  428SOL     OW 1418   3.686   0.367   3.981 -0.8855  0.3105  0.9940
  428SOL    HW1 1419   3.700   0.439   3.920 -0.3829  0.9906  1.8721
  428SOL    HW2 1420   3.684   0.288   3.927  0.6683  0.7757  0.2202
  429SOL     OW 1421   2.735   3.189   0.163  0.0899 -0.3756  0.4657
  429SOL    HW1 1422   2.693   3.135   0.096  1.1523  1.4881 -1.8805
  429SOL    HW2 1423   2.827   3.193   0.137  0.1461  2.1109  0.7371
  430SOL     OW 1424   0.117   1.408   0.472 -0.1804 -0.2470 -0.4632
  430SOL    HW1 1425   0.072   1.442   0.549 -2.4029 -1.5368 -1.0841
  430SOL    HW2 1426   0.148   1.321   0.500  1.0662  0.2098 -0.3652
  431SOL     OW 1427   4.303   1.280   4.576  0.1580  0.7439 -0.2666
  431SOL    HW1 1428   4.312   1.186   4.565 -1.0154  0.7495 -1.4445
  431SOL    HW2 1429   4.335   1.317   4.494  1.7442  1.4753  0.6240
  432SOL     OW 1430   0.239   0.480   4.036 -0.0393  0.4100 -0.5059
  432SOL    HW1 1431   0.237   0.403   4.093 -2.1288 -0.7092 -1.9304
  432SOL    HW2 1432   0.278   0.448   3.955 -0.9600  0.8036 -1.1242
  433SOL     OW 1433   4.447   3.335   2.744  0.2752  0.1277  0.4932
  433SOL    HW1 1434   4.480   3.251   2.777 -1.2341 -0.3951  0.7479
  433SOL    HW2 1435   4.489   3.345   2.659 -0.5760 -1.5839 -0.1693
  434SOL     OW 1436   0.306   0.475   2.637 -0.0209 -0.3333 -0.2944
  434SOL    HW1 1437   0.266   0.521   2.563  1.2573  0.0146 -0.7971
  434SOL    HW2 1438   0.367   0.539   2.674 -1.2585 -0.1968  1.6252
  435SOL     OW 1439   2.860   2.543   3.820  0.0675  0.2511 -0.2558
  435SOL    HW1 1440   2.846   2.612   3.884  2.7040 -0.0843  0.8131
  435SOL    HW2 1441   2.829   2.463   3.862 -0.2124  0.3345 -0.2989
  436SOL     OW 1442   3.967   2.192   1.404  0.8860 -0.1809  0.2363
  436SOL    HW1 1443   4.017   2.223   1.328  0.0602  0.1023 -0.2026
  436SOL    HW2 1444   3.956   2.271   1.458  0.5375 -0.1470  0.1162
  437SOL     OW 1445   2.055   0.572   4.322  0.4097  0.2019  0.2135
  437SOL    HW1 1446   2.070   0.608   4.235  0.4324  1.8272  0.8514
  437SOL    HW2 1447   2.009   0.490   4.307  1.3742 -0.0816 -1.3631
  438SOL     OW 1448   2.160   2.893   4.287 -0.0621 -0.1276 -0.5541
  438SOL    HW1 1449   2.086   2.834   4.274 -0.4708  0.3200 -0.2830
  438SOL    HW2 1450   2.171   2.935   4.202  0.0749 -0.4116 -0.6795
  439SOL     OW 1451   1.356   4.107   2.156 -0.0211 -0.5283 -0.0328
  439SOL    HW1 1452   1.306   4.103   2.238  0.1542  0.2911  0.1160
  439SOL    HW2 1453   1.308   4.050   2.096 -0.4310 -0.7386  0.4894
  440SOL     OW 1454   0.180   3.480   3.213  0.5401  0.5867  0.1374
  440SOL    HW1 1455   0.257   3.424   3.210 -0.0877 -0.2695 -0.6963
  440SOL    HW2 1456   0.127   3.444   3.284  0.3430  0.4034 -0.1023
  441SOL     OW 1457   4.284   3.588   0.232  0.2056 -0.1940 -0.0581
  441SOL    HW1 1458   4.236   3.648   0.289  2.5310  1.8933 -0.1205
  441SOL    HW2 1459   4.316   3.519   0.290  0.0277  0.2653  0.5899
  442SOL     OW 1460   4.808   1.225   2.960  0.1296  0.4238  0.1114
  442SOL    HW1 1461   4.762   1.157   3.010 -2.1208  0.8365 -1.2474
  442SOL    HW2 1462   4.827   1.294   3.024  0.1579 -0.3762  0.9902
  443SOL     OW 1463   2.810   3.558  -0.011  0.5750  0.6559 -0.6631
  443SOL    HW1 1464   2.784   3.649   0.007  1.0053  0.7744 -0.6439
  443SOL    HW2 1465   2.868   3.534   0.061 -1.5749 -0.5217  0.7769
  444SOL     OW 1466   1.375   3.724   3.053 -0.1364 -0.4125 -0.5857
  444SOL    HW1 1467   1.391   3.633   3.077 -2.7201 -0.5431  1.0717
  444SOL    HW2 1468   1.297   3.748   3.103  1.1115  3.0932 -0.0693
  445SOL     OW 1469   3.182   1.740   2.827  0.2177  0.1648  0.3682
  445SOL    HW1 1470   3.115   1.702   2.770  0.0247  1.8655 -0.5818
  445SOL    HW2 1471   3.244   1.668   2.841  0.0254 -0.4414 -1.6042
  446SOL     OW 1472   0.580   2.987   2.090 -0.6546  0.0405  0.4782
  446SOL    HW1 1473   0.608   3.000   2.180 -0.2367 -2.9252  0.8834
  446SOL    HW2 1474   0.511   3.052   2.076  0.9289  2.1836  2.0665
  447SOL     OW 1475   3.088   1.373   3.111 -0.3804  0.1032  0.0256
  447SOL    HW1 1476   3.001   1.374   3.073  1.1842 -0.2015 -4.0580
  447SOL    HW2 1477   3.124   1.288   3.086  1.5452  0.7635  0.3722
  448SOL     OW 1478   1.079   4.887   0.400 -0.1007 -0.8704 -0.1183
  448SOL    HW1 1479   1.151   4.824   0.390  1.1443  0.6389 -1.3419
  448SOL    HW2 1480   1.000   4.834   0.391  0.8917 -2.1867 -1.9129
  449SOL     OW 1481   3.134   4.494   0.906 -0.2416  0.3007 -0.1794
  449SOL    HW1 1482   3.049   4.534   0.922 -1.1378 -1.6154  0.2281
  449SOL    HW2 1483   3.192   4.531   0.973 -1.1410  0.5568  0.4739
  450SOL     OW 1484   1.473   4.499   2.175 -0.4138  0.3909 -0.4798
  450SOL    HW1 1485   1.478   4.433   2.106  1.9152  0.9086 -0.8908
  450SOL    HW2 1486   1.482   4.449   2.256 -0.2653  0.0606 -0.6959
  451SOL     OW 1487   2.356   0.087   1.445  0.5302 -0.0231  0.6093
  451SOL    HW1 1488   2.450   0.075   1.456  0.4241 -2.1093 -0.3401
  451SOL    HW2 1489   2.322   0.095   1.534  1.6169  1.3319  0.9504
  452SOL     OW 1490   4.113   4.331   4.333 -0.2850  0.6432 -0.1089
  452SOL    HW1 1491   4.107   4.288   4.418  1.0000  0.1914 -0.2082
  452SOL    HW2 1492   4.024   4.330   4.298 -0.8299  0.8415  1.2165
  453SOL     OW 1493   0.829   3.091   2.059 -1.0516  0.2272  0.7308
  453SOL    HW1 1494   0.861   3.148   1.989 -2.2318 -1.3342 -1.1770
  453SOL    HW2 1495   0.734   3.107   2.061 -1.2333 -0.8170  0.9484
  454SOL     OW 1496   4.757   1.501   1.845 -0.3824 -0.0684  1.1920
  454SOL    HW1 1497   4.691   1.521   1.779 -0.5915  1.2172  1.7511
  454SOL    HW2 1498   4.778   1.409   1.832 -0.3015  0.1836 -0.7659
  455SOL     OW 1499   3.068   4.732   0.481 -0.2332 -0.1202 -0.0744
  455SOL    HW1 1500   3.053   4.736   0.576  1.8320 -1.5924  0.4035
  455SOL    HW2 1501   3.153   4.776   0.469  0.1717 -1.1288 -1.0360
  456SOL     OW 1502   3.364   4.901   0.248  0.6935  0.0577  1.2883
  456SOL    HW1 1503   3.398   4.951   0.174  2.3443 -0.7688  1.4308
  456SOL    HW2 1504   3.307   4.835   0.209  0.1504  0.7338  0.9258
  457SOL     OW 1505   3.113   4.911   1.605  0.1012  0.1247  0.4328
  457SOL    HW1 1506   3.139   4.979   1.667  1.7228  0.5775 -0.6922
  457SOL    HW2 1507   3.165   4.834   1.631  1.6558  0.6307 -0.9584
  458SOL     OW 1508   2.728   0.727   3.953  0.2569  0.0427  0.2800
  458SOL    HW1 1509   2.709   0.712   3.861 -0.7188 -0.5768  0.5597
  458SOL    HW2 1510   2.653   0.778   3.985 -0.5247 -1.5822  1.1857
  459SOL     OW 1511   1.826   1.596   4.746  0.1086 -0.0742 -0.0036
  459SOL    HW1 1512   1.920   1.593   4.725 -0.0480 -0.0320 -0.7448
  459SOL    HW2 1513   1.818   1.671   4.805  0.4383  0.3912 -0.5297
  460SOL     OW 1514   0.941   0.195   3.956  0.2439 -0.5005  1.5807
  460SOL    HW1 1515   1.000   0.191   4.031  1.1480  1.7904  1.0531
  460SOL    HW2 1516   0.966   0.274   3.909 -0.1138 -1.9499 -1.3100
  461SOL     OW 1517   2.590   2.779   0.914 -0.2809 -0.1010 -0.5476
  461SOL    HW1 1518   2.671   2.741   0.881  0.7561  0.4339  1.2364
  461SOL    HW2 1519   2.571   2.729   0.994 -0.9435  0.6736 -0.2098
  462SOL     OW 1520   2.389   1.857   1.168  0.1761  0.3315  0.6393
  462SOL    HW1 1521   2.346   1.789   1.117 -0.0943  0.5734  0.5415
  462SOL    HW2 1522   2.479   1.827   1.177  0.4241  0.6383 -0.6241
  463SOL     OW 1523   0.252   0.094   0.416  0.4520 -0.1070  0.1614
  463SOL    HW1 1524   0.271   0.001   0.428 -1.2925 -0.4269  0.7207
  463SOL    HW2 1525   0.215   0.122   0.500 -1.1007  0.5152 -0.6795
  464SOL     OW 1526   1.317   0.802   1.384  0.4260 -0.6287  0.3882
  464SOL    HW1 1527   1.230   0.827   1.416  0.4028  0.7149 -0.6354
  464SOL    HW2 1528   1.317   0.827   1.291  1.9947 -0.3407  0.4363
  465SOL     OW 1529   2.657   1.310   3.906  0.0331  0.0023 -0.5773
  465SOL    HW1 1530   2.607   1.365   3.966 -0.2790 -0.6904 -0.1899
  465SOL    HW2 1531   2.749   1.325   3.931 -0.1390 -2.2401  1.9206
  466SOL     OW 1532   0.041   2.797   4.617  0.1401 -0.3075 -0.2451
  466SOL    HW1 1533   0.135   2.794   4.602  0.1461 -0.0477 -0.2574
  466SOL    HW2 1534   0.005   2.740   4.549  0.3363 -0.9989  0.2142
  467SOL     OW 1535   3.363   4.562   4.278 -0.0028  0.6103 -0.1190
  467SOL    HW1 1536   3.394   4.492   4.335  0.3497 -0.5668 -1.6929
  467SOL    HW2 1537   3.307   4.518   4.213 -0.9514  1.9964 -0.2866
  468SOL     OW 1538   1.053   0.760   1.193 -0.1658 -0.3884 -0.3151
  468SOL    HW1 1539   1.013   0.720   1.116  0.3947  1.7029 -1.7689
  468SOL    HW2 1540   1.020   0.850   1.194 -0.9605 -0.5955  2.5180
  469SOL     OW 1541   2.484   3.233   2.106 -0.3205  0.7669 -0.5584
  469SOL    HW1 1542   2.477   3.273   2.192  0.2565  1.2549 -0.7294
  469SOL    HW2 1543   2.397   3.242   2.068 -2.1872 -3.8729  1.8062
  470SOL     OW 1544   2.717   3.302   1.101 -0.1228 -0.2000 -0.2126
  470SOL    HW1 1545   2.767   3.247   1.041 -0.7349 -0.3681 -0.5771
  470SOL    HW2 1546   2.630   3.262   1.105 -0.0053 -0.3686  1.0377
  471SOL     OW 1547   2.840   2.739   0.480 -0.6190 -0.5872 -0.4669
  471SOL    HW1 1548   2.789   2.755   0.559 -0.6014  0.7329 -0.7032
  471SOL    HW2 1549   2.921   2.788   0.494  1.4312 -3.9783  0.6442
  472SOL     OW 1550   1.683   4.157   2.515  0.3850  0.3598  0.8325
  472SOL    HW1 1551   1.619   4.144   2.585 -0.8932 -1.9978 -0.6298
  472SOL    HW2 1552   1.751   4.092   2.532  0.2331 -0.0065  0.0904
  473SOL     OW 1553   1.475   3.372   2.218  0.0759  0.1261  0.8748
  473SOL    HW1 1554   1.472   3.452   2.271 -1.4413  0.2030  0.7376
  473SOL    HW2 1555   1.392   3.328   2.238 -0.8472  0.4616 -1.8390
  474SOL     OW 1556   3.799   1.395   2.141  0.4852  0.4091 -0.0278
  474SOL    HW1 1557   3.781   1.455   2.068  0.8586  1.6399  0.8575
  474SOL    HW2 1558   3.801   1.309   2.100 -0.3513  0.9473 -1.3075
  475SOL     OW 1559   4.157   2.713   4.521  0.3945 -0.6285 -0.0827
  475SOL    HW1 1560   4.101   2.743   4.449  0.6604 -1.3855 -0.6182
  475SOL    HW2 1561   4.156   2.786   4.583 -0.5747 -0.3191 -0.4254
  476SOL     OW 1562   1.392   0.877   1.124  1.2255 -0.6718 -0.0825
  476SOL    HW1 1563   1.361   0.953   1.075 -0.8446 -0.9531  0.6658
  476SOL    HW2 1564   1.477   0.903   1.158  0.7753  1.1311 -0.2278
  477SOL     OW 1565   0.076   0.757   1.102  0.0396 -0.1362 -0.4853
  477SOL    HW1 1566   0.003   0.800   1.058 -1.2817 -0.7832  0.9658
  477SOL    HW2 1567   0.082   0.671   1.061 -3.0241 -1.8625  2.2074
  478SOL     OW 1568   3.255   0.391   2.092 -0.3885 -0.2010 -0.2042
  478SOL    HW1 1569   3.254   0.451   2.167 -0.2429 -0.2086 -0.1973
  478SOL    HW2 1570   3.279   0.446   2.017  0.3790 -0.3772 -0.0929
  479SOL     OW 1571   4.987   0.386   4.869  0.5700 -0.8271 -0.7785
  479SOL    HW1 1572   4.967   0.307   4.819  0.7163  0.2628 -2.6543
  479SOL    HW2 1573   4.936   0.455   4.827  1.1799  0.2690  0.2025
  480SOL     OW 1574   1.278   1.751   1.201  0.0494 -0.2538  0.7985
  480SOL    HW1 1575   1.370   1.757   1.226  0.7329 -2.8224 -0.6817
  480SOL    HW2 1576   1.279   1.749   1.105 -1.8648  2.5624  0.6158
  481SOL     OW 1577   3.784   1.528   1.880  0.1396  0.3438 -0.3521
  481SOL    HW1 1578   3.776   1.618   1.846  0.9389 -0.1956 -2.0892
  481SOL    HW2 1579   3.744   1.473   1.813  0.9767 -0.7190 -0.0037
  482SOL     OW 1580   4.899   1.585   4.732  0.1944 -0.0311 -0.5560
  482SOL    HW1 1581   4.838   1.559   4.802 -0.0942 -0.4331 -0.9479
  482SOL    HW2 1582   4.872   1.531   4.657 -0.9153  1.9318 -1.6421
  483SOL     OW 1583   4.205   1.680   3.935  0.3869 -0.2887  0.1153
  483SOL    HW1 1584   4.195   1.703   4.027  0.6234  0.5930 -0.0648
  483SOL    HW2 1585   4.265   1.747   3.900  0.6598 -0.8800 -0.5715
  484SOL     OW 1586   3.491   0.046   0.988 -0.0392 -0.8188 -0.0962
  484SOL    HW1 1587   3.533   0.110   0.931 -1.5338  0.3615  0.0409
  484SOL    HW2 1588   3.516   0.072   1.077  0.6639 -1.4309 -0.1089
  485SOL     OW 1589   2.001   1.522   0.537 -0.3172 -0.2021  0.5063
  485SOL    HW1 1590   1.963   1.609   0.547  0.6318  0.1272  1.3714
  485SOL    HW2 1591   2.019   1.514   0.443 -1.0312  0.2516  0.3198
  486SOL     OW 1592   3.879   0.962   2.242 -0.1918  0.1268  0.0602
  486SOL    HW1 1593   3.801   0.937   2.292 -0.9886 -0.0885 -1.2450
  486SOL    HW2 1594   3.952   0.938   2.298 -1.0530 -0.3626  1.0028
  487SOL     OW 1595   1.030   4.403   0.879 -0.3541 -0.1224 -0.1841
  487SOL    HW1 1596   1.005   4.409   0.787  0.7035  0.7616 -0.4336
  487SOL    HW2 1597   0.987   4.478   0.920 -1.0566 -0.6775  0.1072
  488SOL     OW 1598   4.116   4.965   1.069 -0.0016 -0.7893 -0.3536
  488SOL    HW1 1599   4.189   5.004   1.117 -0.3564 -2.2271  1.4944
  488SOL    HW2 1600   4.157   4.905   1.007  0.4444 -1.8307  0.8966
  489SOL     OW 1601   4.955   0.519   4.061  0.4510 -0.0752  0.4116
  489SOL    HW1 1602   4.925   0.590   4.004  1.1466 -1.3983 -1.7582
  489SOL    HW2 1603   5.043   0.544   4.088  0.7565 -0.1480 -0.4818
  490SOL     OW 1604   0.596   1.392   2.356 -0.2543 -0.2364  0.0453
  490SOL    HW1 1605   0.629   1.467   2.307  0.5665 -0.0543  0.8414
  490SOL    HW2 1606   0.507   1.379   2.325  0.1082  0.1369 -1.1733
  491SOL     OW 1607   0.450   3.938   2.916 -0.0863  0.9732  0.2406
  491SOL    HW1 1608   0.430   4.029   2.940 -0.8388  0.2410  2.6910
  491SOL    HW2 1609   0.472   3.896   2.999 -0.0571 -1.1904 -0.7916
  492SOL     OW 1610   2.691   1.065   4.575  0.3868 -0.4021 -0.0471
  492SOL    HW1 1611   2.700   0.987   4.520 -1.8739 -0.1271 -0.9175
  492SOL    HW2 1612   2.637   1.037   4.648 -1.0240  0.4489 -0.7160
  493SOL     OW 1613   3.473   2.995   0.813 -0.0324  0.1228 -0.2110
  493SOL    HW1 1614   3.515   2.941   0.881  0.3730  1.6145  0.7654
  493SOL    HW2 1615   3.381   2.969   0.816  0.1594 -0.5653  0.1887
  494SOL     OW 1616   1.175   2.476   2.871  0.3451  0.4115 -0.0845
  494SOL    HW1 1617   1.177   2.545   2.937 -0.5277  3.0701 -2.6080
  494SOL    HW2 1618   1.084   2.445   2.871  0.0965  1.1176 -0.6692
  495SOL     OW 1619   0.009   2.131   1.516 -0.0136  0.5658  0.3540
  495SOL    HW1 1620   0.092   2.179   1.512 -0.9615  2.1847 -0.8992
  495SOL    HW2 1621   0.028   2.048   1.472  1.0738  0.6797  0.5650
  496SOL     OW 1622   0.817   1.544   3.131  0.4350 -0.4663 -0.3057
  496SOL    HW1 1623   0.795   1.616   3.190  0.6927 -1.3977  0.9627
  496SOL    HW2 1624   0.812   1.583   3.043 -2.7656  0.2342  0.0892
  497SOL     OW 1625   0.460   1.518   3.829  0.1547 -1.0756  0.3797
  497SOL    HW1 1626   0.513   1.444   3.799  1.1541 -0.8091  1.3931
  497SOL    HW2 1627   0.478   1.523   3.923 -0.2043  0.2117  0.3901
  498SOL     OW 1628   1.043   2.933   2.124 -0.1047 -0.7321  0.1881
  498SOL    HW1 1629   1.076   2.963   2.040  0.0793  0.4938  0.6766
  498SOL    HW2 1630   0.967   2.988   2.141  1.4542  1.0426  2.0672
  499SOL     OW 1631   3.728   2.467   4.979 -0.1130 -0.2704 -0.5839
  499SOL    HW1 1632   3.752   2.553   4.945  1.9440 -0.5893 -0.0913
  499SOL    HW2 1633   3.646   2.481   5.026  0.5097  1.5710  0.0360
  500SOL     OW 1634   1.339   3.382   1.481 -0.0403 -1.0104 -0.4487
  500SOL    HW1 1635   1.315   3.318   1.414  1.6118  0.6126 -2.7432
  500SOL    HW2 1636   1.429   3.407   1.460  0.3594 -0.0189  2.1016
  501SOL     OW 1637   4.303   2.470   2.464  0.4183 -0.0263 -0.5397
  501SOL    HW1 1638   4.231   2.445   2.522  0.4474 -1.0825 -0.9411
  501SOL    HW2 1639   4.320   2.562   2.485 -1.3222  0.3649 -0.7183
  502SOL     OW 1640   1.926   1.648   1.898 -0.5342  0.3840  0.0264
  502SOL    HW1 1641   1.941   1.640   1.804 -0.5793 -1.1372  0.1251
  502SOL    HW2 1642   2.012   1.631   1.938 -0.9100 -0.9382  0.3160
  503SOL     OW 1643   2.400   2.417   1.429 -0.1128  0.3824 -0.1377
  503SOL    HW1 1644   2.469   2.363   1.391 -0.3101  0.6386 -0.8758
  503SOL    HW2 1645   2.446   2.477   1.488  0.1988  0.0164  0.0002
  504SOL     OW 1646   2.246   0.884   0.240 -0.0691  0.2126  0.4371
  504SOL    HW1 1647   2.335   0.855   0.221 -1.1232 -0.7805 -4.4109
  504SOL    HW2 1648   2.250   0.980   0.234  0.5907  0.1344 -0.6709
  505SOL     OW 1649   4.718   1.178   1.761 -0.4170 -0.5303  0.2324
  505SOL    HW1 1650   4.726   1.085   1.738  0.3185 -0.1768 -1.0052
  505SOL    HW2 1651   4.624   1.191   1.773 -0.8425 -0.8468 -2.2972
  506SOL     OW 1652   1.824   4.353   4.585 -0.5502 -0.3354 -0.2076
  506SOL    HW1 1653   1.768   4.280   4.610 -0.7899  0.1746  0.7984
  506SOL    HW2 1654   1.763   4.424   4.564 -0.3337  0.5533  1.9019
  507SOL     OW 1655   0.993   0.270   4.542 -0.9753 -0.3266  0.1523
  507SOL    HW1 1656   0.967   0.210   4.611  1.0200 -1.9585 -0.4024
  507SOL    HW2 1657   0.949   0.236   4.463  0.7939 -1.6692 -0.3254
  508SOL     OW 1658   0.649   0.157   1.137  0.0755 -0.6627 -0.6424
  508SOL    HW1 1659   0.570   0.109   1.163 -0.2387 -0.4594 -1.1979
  508SOL    HW2 1660   0.709   0.147   1.211 -2.4365  3.8442  2.4917
  509SOL     OW 1661   3.416   2.874   3.165 -0.4007  0.7311  0.5406
  509SOL    HW1 1662   3.351   2.907   3.103 -0.3999  2.3592  1.3389
  509SOL    HW2 1663   3.500   2.886   3.120 -0.5825 -1.1303 -0.3864
  510SOL     OW 1664   4.472   4.643   1.943  0.4568  0.5709  0.4747
  510SOL    HW1 1665   4.433   4.556   1.954 -2.1259  0.9424 -3.4430
  510SOL    HW2 1666   4.407   4.703   1.979 -0.6001  0.9971 -1.9354
  511SOL     OW 1667   1.586   4.294   3.850 -0.1332  0.3992  0.7279
  511SOL    HW1 1668   1.515   4.350   3.819 -1.7756 -1.3804  1.1248
  511SOL    HW2 1669   1.636   4.273   3.770 -0.0148  1.6280  0.4440
  512SOL     OW 1670   3.487   1.970   3.598 -0.3851 -0.3215  0.7907
  512SOL    HW1 1671   3.473   2.064   3.583 -0.7943 -0.5019 -0.0482
  512SOL    HW2 1672   3.470   1.957   3.691  0.1149  0.5088  1.0122
  513SOL     OW 1673   0.179   0.725   3.827 -0.5812 -0.2220 -0.0861
  513SOL    HW1 1674   0.270   0.694   3.828 -0.6404 -0.3866  0.5904
  513SOL    HW2 1675   0.167   0.766   3.913 -1.6429 -1.6633  0.4966
  514SOL     OW 1676   3.489   2.094   0.828  0.3288  0.1797 -0.6100
  514SOL    HW1 1677   3.445   2.139   0.755 -2.2113  1.3286  1.4450
  514SOL    HW2 1678   3.530   2.165   0.878 -3.2383  0.4900  2.3561
  515SOL     OW 1679   4.243   2.327   0.947 -0.1310  0.3875 -0.0931
  515SOL    HW1 1680   4.248   2.371   1.032  1.3373  0.0136  0.0413
  515SOL    HW2 1681   4.155   2.347   0.915 -0.3911  1.2860  1.0999
  516SOL     OW 1682   2.668   0.216   3.549  0.0145  0.1431  0.0758
  516SOL    HW1 1683   2.612   0.140   3.565 -0.9051  0.7897  0.0140
  516SOL    HW2 1684   2.655   0.272   3.625  1.5649 -0.2611  0.6650
  517SOL     OW 1685   4.267   0.569   1.072 -0.0532 -0.3676  0.3286
  517SOL    HW1 1686   4.204   0.510   1.113 -2.5794  0.5576 -1.9298
  517SOL    HW2 1687   4.279   0.533   0.984  1.8906  0.0279  0.3921
  518SOL     OW 1688   0.682   1.756   4.068 -0.1200  0.1358 -0.3156
  518SOL    HW1 1689   0.661   1.817   3.998 -1.6258  0.4832  0.3962
  518SOL    HW2 1690   0.600   1.710   4.086  0.4201 -0.4762  0.7096
  519SOL     OW 1691   2.499   1.812   1.815 -0.0355 -0.2974 -1.0343
  519SOL    HW1 1692   2.563   1.881   1.801  0.0728 -0.0951  0.3329
  519SOL    HW2 1693   2.546   1.745   1.864 -1.0024  0.1478  0.5829
  520SOL     OW 1694   2.041   2.087   3.798  0.2783  0.3774  0.2555
  520SOL    HW1 1695   2.058   2.031   3.722 -4.0731  0.0015 -0.6510
  520SOL    HW2 1696   2.054   2.176   3.766 -0.1371  0.1661 -0.5230
  521SOL     OW 1697   1.055   2.407   3.548 -0.1834 -0.2949  0.5129
  521SOL    HW1 1698   1.137   2.453   3.565 -0.9302  1.5945 -0.6753
  521SOL    HW2 1699   1.067   2.367   3.462 -0.7783  0.7739 -0.0987
  522SOL     OW 1700   4.809   1.353   1.570 -0.5624 -0.4030  0.3196
  522SOL    HW1 1701   4.864   1.292   1.520 -1.7784 -0.3586 -1.1433
  522SOL    HW2 1702   4.771   1.299   1.640  1.5002 -0.3701  1.5390
  523SOL     OW 1703   3.524   4.293   1.868 -0.6425 -0.4501 -0.4645
  523SOL    HW1 1704   3.483   4.213   1.899 -0.0162 -0.8044 -0.5214
  523SOL    HW2 1705   3.453   4.345   1.832 -0.7174 -2.3014 -3.3113
  524SOL     OW 1706   2.893   0.128   0.493 -0.3086  0.4852 -0.3479
  524SOL    HW1 1707   2.962   0.191   0.472  0.8087 -0.8047 -0.6258
  524SOL    HW2 1708   2.917   0.049   0.445 -1.5318 -0.2611  0.2360
  525SOL     OW 1709   2.155   2.559   0.184  0.0940 -0.7924  0.6278
  525SOL    HW1 1710   2.171   2.607   0.266  0.0782 -0.2235  0.3064
  525SOL    HW2 1711   2.123   2.474   0.212 -0.5909 -0.3575  1.2116
  526SOL     OW 1712   0.936   0.038   0.101  0.2666 -0.0384  0.7082
  526SOL    HW1 1713   0.903  -0.038   0.149  1.3552  0.0342  1.6217
  526SOL    HW2 1714   0.969   0.096   0.170  4.1789 -0.9752 -0.1408
  527SOL     OW 1715   2.236   3.931   1.456  0.6485  0.5754  0.6153
  527SOL    HW1 1716   2.260   4.023   1.446 -2.7178  1.5471  0.3333
  527SOL    HW2 1717   2.227   3.899   1.367 -0.9789  0.8450  0.6603
  528SOL     OW 1718   2.708   4.725   4.016  0.1788  0.3969  0.0046
  528SOL    HW1 1719   2.689   4.746   3.925  2.1434  3.7809  0.1864
  528SOL    HW2 1720   2.804   4.719   4.020  0.0910 -0.7802  1.6665
  529SOL     OW 1721   0.219   4.366   0.271  1.3240 -0.5791  0.6031
  529SOL    HW1 1722   0.133   4.334   0.297  1.3332 -0.7802  0.3839
  529SOL    HW2 1723   0.201   4.441   0.214  1.2857 -1.0233  0.0300
  530SOL     OW 1724   4.833   4.084   3.026  0.0104 -0.8059 -0.0733
  530SOL    HW1 1725   4.906   4.072   3.087  0.2492 -1.1352 -0.4237
  530SOL    HW2 1726   4.789   4.164   3.057  0.7625 -0.3680 -0.1080
  531SOL     OW 1727   4.774   2.523   2.672  0.7623 -0.4800  0.0199
  531SOL    HW1 1728   4.742   2.594   2.617  0.1875 -0.2343  0.6456
  531SOL    HW2 1729   4.806   2.567   2.751 -1.2012 -0.9798  1.1777
  532SOL     OW 1730   0.733   1.103   4.386 -0.2669 -0.1104 -0.1969
  532SOL    HW1 1731   0.700   1.014   4.398  0.5864 -0.3052  0.8195
  532SOL    HW2 1732   0.828   1.095   4.397 -0.0253  0.7105 -1.4547
  533SOL     OW 1733   4.730   0.488   3.810 -0.2080 -0.4516  0.1109
  533SOL    HW1 1734   4.636   0.500   3.819 -0.3506 -0.0948 -1.5783
  533SOL    HW2 1735   4.753   0.533   3.728  1.6439  0.6243  1.1244
  534SOL     OW 1736   3.576   4.883   4.806  0.5301 -0.1376  0.6106
  534SOL    HW1 1737   3.642   4.829   4.763 -0.4475 -0.6970 -0.2504
  534SOL    HW2 1738   3.498   4.828   4.809 -0.6170  1.3255 -0.6269
  535SOL     OW 1739   3.310   0.041   3.457 -0.4266 -0.0569 -0.0038
  535SOL    HW1 1740   3.354  -0.010   3.525 -0.2024 -0.5127 -0.4872
  535SOL    HW2 1741   3.320   0.132   3.485  2.7317  0.0509 -1.2054
  536SOL     OW 1742   1.086   1.806   2.904 -0.0144 -0.0234 -0.1056
  536SOL    HW1 1743   1.135   1.884   2.930  0.7292 -0.4016 -0.3486
  536SOL    HW2 1744   1.124   1.735   2.956 -0.6667 -0.2317  0.0931
  537SOL     OW 1745   0.986   1.067   4.450  0.1064 -0.2820  0.0230
  537SOL    HW1 1746   1.051   1.130   4.420 -0.9313  0.4241 -0.8128
  537SOL    HW2 1747   1.031   1.016   4.517  1.6512 -0.1178 -0.8538
  538SOL     OW 1748   0.545   2.174   4.524  0.4774  0.2743  0.2521
  538SOL    HW1 1749   0.463   2.146   4.564  0.5214  1.4356  1.2380
  538SOL    HW2 1750   0.611   2.155   4.590  0.8790  0.1301 -0.1882
  539SOL     OW 1751   3.926   0.752   2.647 -0.2773 -0.2951 -0.6476
  539SOL    HW1 1752   3.901   0.708   2.728  1.4843 -1.6546 -0.7903
  539SOL    HW2 1753   4.016   0.780   2.661  0.1473 -0.7763 -2.2057
  540SOL     OW 1754   1.818   1.856   1.254 -0.0767 -0.4268 -0.1241
  540SOL    HW1 1755   1.841   1.811   1.335  0.7101  2.3131  1.2940
  540SOL    HW2 1756   1.809   1.948   1.279  0.1720  0.5302 -3.1374
  541SOL     OW 1757   0.817   0.436   1.109  0.6497  0.3822 -0.7740
  541SOL    HW1 1758   0.824   0.532   1.112 -2.7762  0.7350 -0.5532
  541SOL    HW2 1759   0.764   0.418   1.032 -1.1646 -1.0802  0.7323
  542SOL     OW 1760   2.118   2.942   3.806 -0.0890 -0.0036 -0.4126
  542SOL    HW1 1761   2.052   2.983   3.750 -0.0910  1.7985  0.8530
  542SOL    HW2 1762   2.202   2.968   3.768 -0.0887  1.3348  0.4614
  543SOL     OW 1763   4.707   4.943   2.454 -0.1884  0.0528 -0.2351
  543SOL    HW1 1764   4.681   4.980   2.538  1.0402 -1.2896  0.7868
  543SOL    HW2 1765   4.669   4.856   2.452 -3.7671  1.3860 -2.9884
  544SOL     OW 1766   0.478   1.210   2.699  0.6301  0.3696  0.1912
  544SOL    HW1 1767   0.477   1.116   2.684 -1.2940  0.3882 -0.0124
  544SOL    HW2 1768   0.492   1.220   2.793  0.0121 -0.1544  0.3423
  545SOL     OW 1769   0.754   4.005   0.310  0.7486  0.1399 -0.0208
  545SOL    HW1 1770   0.818   3.990   0.241  1.9314  1.2899  0.7730
  545SOL    HW2 1771   0.670   3.989   0.269  1.5002 -0.5455 -1.3446
  546SOL     OW 1772   4.130   4.052   3.002  0.8386  0.0561  0.0166
  546SOL    HW1 1773   4.072   4.062   3.077 -0.4820  2.1125 -1.1988
  546SOL    HW2 1774   4.084   3.992   2.944 -0.3324  1.9461 -1.0978
  547SOL     OW 1775   3.775   2.180   4.081 -0.1556 -0.1148  0.3827
  547SOL    HW1 1776   3.730   2.122   4.142 -0.8804  1.4505  1.3910
  547SOL    HW2 1777   3.792   2.125   4.004 -3.4742 -0.8957  0.0712
  548SOL     OW 1778   2.445   1.311   3.005  0.1359 -0.0660 -0.6786
  548SOL    HW1 1779   2.458   1.226   2.964  0.5434 -0.4333  0.1925
  548SOL    HW2 1780   2.524   1.360   2.982 -0.1844  0.1612 -1.3430
  549SOL     OW 1781   2.568   2.100   4.741 -0.1295 -0.0108  0.5094
  549SOL    HW1 1782   2.509   2.026   4.727 -1.4890  1.1362 -0.1208
  549SOL    HW2 1783   2.538   2.140   4.822 -1.5276  1.6970 -0.7785
  550SOL     OW 1784   4.095   2.124   4.812  0.8649 -0.2445 -0.3205
  550SOL    HW1 1785   4.023   2.165   4.860 -1.7446 -3.5536 -1.0435
  550SOL    HW2 1786   4.110   2.042   4.859  1.8728 -1.1491 -2.1520
  551SOL     OW 1787   2.312   4.142   4.970  0.2145  0.0994 -0.5960
  551SOL    HW1 1788   2.349   4.125   5.056 -0.3436 -1.8560 -0.7055
  551SOL    HW2 1789   2.363   4.216   4.936  0.8457  0.4979  1.1360
  552SOL     OW 1790   0.943   0.193   0.519 -0.6938  0.1766 -0.6362
  552SOL    HW1 1791   0.866   0.141   0.494 -0.0456 -0.6147 -1.0257
  552SOL    HW2 1792   1.014   0.129   0.524 -0.5581  0.4318  2.3173
  553SOL     OW 1793   1.924   3.849   2.042 -0.3842  0.1705 -0.7715
  553SOL    HW1 1794   1.912   3.833   2.135  0.8686 -0.8345 -0.7571
  553SOL    HW2 1795   1.977   3.929   2.038  1.8456 -1.2088 -0.4859
  554SOL     OW 1796   4.026   0.272   3.309 -0.0888  0.4490 -0.1332
  554SOL    HW1 1797   4.098   0.335   3.305 -0.1529  0.5233 -0.1295
  554SOL    HW2 1798   4.063   0.195   3.352 -0.9501  1.7771  3.2350
  555SOL     OW 1799   2.379   1.498   4.011 -0.2193 -1.0104  0.1021
  555SOL    HW1 1800   2.395   1.563   4.078 -2.3759  1.5006 -1.5861
  555SOL    HW2 1801   2.285   1.477   4.019 -0.1278 -2.0010 -0.9810
  556SOL     OW 1802   4.034   3.911   3.386 -0.5590  1.4248 -0.3415
  556SOL    HW1 1803   3.947   3.942   3.411 -0.8278  0.9409 -0.6403
  556SOL    HW2 1804   4.083   3.990   3.365 -1.8336  1.5807 -3.0902
  557SOL     OW 1805   0.162   0.147   3.783 -0.1523 -0.1020  0.1267
  557SOL    HW1 1806   0.102   0.099   3.839  0.7415 -1.3989  0.0017
  557SOL    HW2 1807   0.232   0.176   3.841 -0.7295  1.1721  0.2212
  558SOL     OW 1808   1.729   4.356   2.975 -0.2036 -0.0541  0.3427
  558SOL    HW1 1809   1.680   4.433   3.005  1.0877  0.5740  0.9246
  558SOL    HW2 1810   1.749   4.308   3.056 -1.5347 -1.3831 -0.0615
  559SOL     OW 1811   3.231   4.511   2.832  0.0450 -0.3761 -0.0715
  559SOL    HW1 1812   3.163   4.472   2.888 -0.0847  1.0074  0.7788
  559SOL    HW2 1813   3.251   4.594   2.874  1.1586 -0.0598 -1.1924
  560SOL     OW 1814   0.237   2.905   0.115  0.1894  0.0863 -0.1152
  560SOL    HW1 1815   0.179   2.981   0.107  0.4645  0.2296 -0.8772
  560SOL    HW2 1816   0.284   2.902   0.031  0.6594 -0.5345  0.1611
  561SOL     OW 1817   2.986   2.081   4.152 -0.4553 -1.2296 -0.1082
  561SOL    HW1 1818   2.924   2.010   4.170  0.1557 -2.4617 -2.4088
  561SOL    HW2 1819   3.060   2.038   4.109  1.7092  0.3039  1.8460
  562SOL     OW 1820   3.646   0.831   1.960  0.1785 -0.2934  0.7279
  562SOL    HW1 1821   3.623   0.845   1.868  1.1958 -0.2977  0.4630
  562SOL    HW2 1822   3.742   0.835   1.962  0.2684 -1.8542  1.5214
  563SOL     OW 1823   3.702   3.325   4.670 -0.6544 -0.0624  0.1461
  563SOL    HW1 1824   3.742   3.307   4.755 -0.0815  0.5183  0.0140
  563SOL    HW2 1825   3.743   3.263   4.610  1.3466  1.5901 -0.3180
  564SOL     OW 1826   3.260   1.526   1.203  0.2135 -0.1972  0.0561
  564SOL    HW1 1827   3.334   1.573   1.163 -0.3845 -0.1706 -1.0570
  564SOL    HW2 1828   3.182   1.566   1.163 -0.3459 -1.4505 -0.1557
  565SOL     OW 1829   1.899   4.654   4.206 -0.6587 -0.2181  0.4872
  565SOL    HW1 1830   1.925   4.688   4.120 -0.5583 -0.5445  0.3857
  565SOL    HW2 1831   1.806   4.632   4.196 -0.6926 -0.0875  0.5161
  566SOL     OW 1832   4.265   1.002   4.879 -0.2096 -0.0167  0.2567
  566SOL    HW1 1833   4.263   0.940   4.952  1.4424  0.4116  0.6945
  566SOL    HW2 1834   4.314   1.077   4.912 -2.3288  1.6803 -0.1729
  567SOL     OW 1835   3.540   1.841   4.529 -0.5749 -0.1436 -0.0353
  567SOL    HW1 1836   3.518   1.782   4.602 -2.4196  0.2076 -0.2644
  567SOL    HW2 1837   3.623   1.882   4.556 -0.2674 -1.3716  1.0187
  568SOL     OW 1838   3.150   2.850   4.533 -0.0452  0.0768  0.2290
  568SOL    HW1 1839   3.164   2.944   4.518  1.5214  0.1288  1.7686
  568SOL    HW2 1840   3.150   2.812   4.445 -2.6411  1.7005 -0.5854
  569SOL     OW 1841   1.214   2.217   1.395 -0.4178 -0.8796  0.4809
  569SOL    HW1 1842   1.132   2.181   1.429 -1.7115  0.6218 -0.8649
  569SOL    HW2 1843   1.215   2.192   1.302  1.5096 -2.2671  0.8089
  570SOL     OW 1844   2.780   3.192   2.247  0.5569 -0.3049 -0.7530
  570SOL    HW1 1845   2.752   3.218   2.159  0.8506  1.4911 -0.3612
  570SOL    HW2 1846   2.746   3.103   2.258 -3.1847  0.9101 -1.1182
  571SOL     OW 1847   3.759   4.784   0.614  0.1014  0.5286 -0.1811
  571SOL    HW1 1848   3.756   4.815   0.705 -0.1477  1.8735 -0.6251
  571SOL    HW2 1849   3.668   4.783   0.586  0.2613  1.2615 -0.7698
  572SOL     OW 1850   4.011   2.381   1.175 -0.0084 -0.3659 -0.0117
  572SOL    HW1 1851   3.926   2.419   1.156  0.7428  1.3441 -0.1624
  572SOL    HW2 1852   4.062   2.453   1.214  1.7337 -0.9874 -1.0103
  573SOL     OW 1853   0.665   4.748   1.333 -0.2993  0.2336  0.0863
  573SOL    HW1 1854   0.672   4.659   1.368  0.2887  0.3358  0.2433
  573SOL    HW2 1855   0.571   4.765   1.330 -0.4175 -0.4054  0.0219
  574SOL     OW 1856   0.796  -0.013   0.975 -0.7984  0.5624  0.0133
  574SOL    HW1 1857   0.879  -0.026   1.021 -0.2660 -0.4067 -1.1478
  574SOL    HW2 1858   0.743   0.040   1.035 -0.6507 -1.6816  2.3074
  575SOL     OW 1859   0.175   2.389   2.124 -0.3936  0.3750 -0.0448
  575SOL    HW1 1860   0.162   2.428   2.038 -0.0738  0.6369  0.0210
  575SOL    HW2 1861   0.243   2.443   2.164 -0.5738  0.2846  0.3879
  576SOL     OW 1862   2.443   1.384   0.196  0.0713 -0.0198 -0.3446
  576SOL    HW1 1863   2.503   1.364   0.124 -0.0760 -0.5394 -0.3251
  576SOL    HW2 1864   2.473   1.468   0.230  3.2983 -1.9327  2.2076
  577SOL     OW 1865   1.187   1.688   3.616 -0.2901 -0.3584 -0.4226
  577SOL    HW1 1866   1.248   1.756   3.645  0.1469 -0.6449 -0.6729
  577SOL    HW2 1867   1.148   1.724   3.536  0.1788 -0.5352 -0.7357
  578SOL     OW 1868   3.043   4.503   1.712 -0.0686  0.2028 -0.3412
  578SOL    HW1 1869   2.952   4.476   1.702 -1.1073  2.5112  1.8375
  578SOL    HW2 1870   3.074   4.514   1.622 -2.9278  2.3418 -1.2095
  579SOL     OW 1871   2.228   1.956   0.778 -0.3317 -0.3100 -0.3983
  579SOL    HW1 1872   2.263   1.869   0.760 -1.8148 -0.9516 -0.3314
  579SOL    HW2 1873   2.133   1.947   0.768 -0.4650  1.5931 -1.6160
  580SOL     OW 1874   0.181   4.962   0.933 -0.3913  0.4567  0.4454
  580SOL    HW1 1875   0.159   4.895   0.998  0.3109  2.1811  2.6140
  580SOL    HW2 1876   0.101   5.013   0.923  0.3791  2.3901  2.8878
  581SOL     OW 1877   1.877   2.462   3.512  0.0164  0.3881  0.2314
  581SOL    HW1 1878   1.808   2.430   3.454 -2.0008  0.9979  2.1791
  581SOL    HW2 1879   1.891   2.553   3.484 -1.0607  0.7297  0.7596
  582SOL     OW 1880   2.518   2.769   3.226 -0.2150  0.1708  0.1606
  582SOL    HW1 1881   2.588   2.756   3.290  1.6839  0.4582 -1.7737
  582SOL    HW2 1882   2.532   2.857   3.192  0.5466 -0.9035 -2.5692
  583SOL     OW 1883   0.835   5.006   1.349  0.3392  0.3570  0.0261
  583SOL    HW1 1884   0.926   4.987   1.327 -0.1200 -0.6174 -1.1719
  583SOL    HW2 1885   0.787   4.929   1.319 -0.6298 -0.1717  2.7127
  584SOL     OW 1886   1.427   3.799   4.241 -0.2298  0.0174  0.2363
  584SOL    HW1 1887   1.502   3.739   4.236 -0.0233  0.2303  0.7226
  584SOL    HW2 1888   1.353   3.743   4.267 -0.3326 -0.2661 -0.6487
  585SOL     OW 1889   2.509   4.906   4.916 -0.0408  0.2328 -0.4202
  585SOL    HW1 1890   2.551   4.922   4.831  0.0350  0.2338 -0.3828
  585SOL    HW2 1891   2.550   4.826   4.949 -0.1696  0.1551 -0.4472
  586SOL     OW 1892   0.297   2.716   4.591 -0.1744 -0.3419 -0.3573
  586SOL    HW1 1893   0.291   2.626   4.622  2.6305 -0.4106  0.2530
  586SOL    HW2 1894   0.348   2.711   4.510  0.1340  0.7065 -0.2490
  587SOL     OW 1895   1.659   3.114   3.425  0.5273 -0.1937  0.7544
  587SOL    HW1 1896   1.743   3.158   3.432 -1.0447  2.7981  2.9154
  587SOL    HW2 1897   1.666   3.040   3.486  1.0541  1.0705  2.2987
  588SOL     OW 1898   4.060   1.893   4.393 -0.4142 -0.2533 -0.6949
  588SOL    HW1 1899   4.009   1.973   4.404  0.2593  0.3455 -1.7061
  588SOL    HW2 1900   4.054   1.848   4.477 -0.5964  0.9968 -0.0197
  589SOL     OW 1901   3.895   2.262   4.974 -0.1607  0.3871  0.2160
  589SOL    HW1 1902   3.835   2.334   4.990 -0.1569  0.3252  0.5165
  589SOL    HW2 1903   3.841   2.183   4.979  0.1542  0.2326  1.7910
  590SOL     OW 1904   1.578   1.874   4.233  0.1303 -0.0564  0.3979
  590SOL    HW1 1905   1.533   1.792   4.254  1.3374 -0.3296  2.1284
  590SOL    HW2 1906   1.562   1.888   4.140 -0.3545 -2.1102  0.1445
  591SOL     OW 1907   1.163   2.608   0.910 -0.3287  0.4902  0.0785
  591SOL    HW1 1908   1.113   2.543   0.959 -0.4446 -0.6898 -1.5172
  591SOL    HW2 1909   1.208   2.659   0.977 -1.7327 -0.0021  1.4575
  592SOL     OW 1910   1.029   4.998   3.392 -0.1001 -0.0927  0.0963
  592SOL    HW1 1911   0.992   4.914   3.420 -1.5963  0.4882 -0.0151
  592SOL    HW2 1912   1.063   5.037   3.472 -1.1789  0.0331  0.5101
  593SOL     OW 1913   2.150   3.698   1.110 -0.2152 -0.3985  0.2583
  593SOL    HW1 1914   2.166   3.769   1.048 -0.7277 -0.2822  0.2562
  593SOL    HW2 1915   2.207   3.628   1.081  1.1437  0.3885  0.9225
  594SOL     OW 1916   1.855   0.125   0.643 -0.4889  0.0369 -0.7699
  594SOL    HW1 1917   1.919   0.079   0.589 -0.4881 -0.0303 -0.7124
  594SOL    HW2 1918   1.907   0.171   0.709 -0.6004 -1.9656  0.7964
  595SOL     OW 1919   4.866   1.215   4.229 -0.1645  0.3039  0.0707
  595SOL    HW1 1920   4.823   1.294   4.262  1.4402  1.5400 -0.6972
  595SOL    HW2 1921   4.887   1.165   4.308 -1.3826  0.5020  0.5543
  596SOL     OW 1922   4.695   3.534   2.639 -0.0026  0.6653 -0.5706
  596SOL    HW1 1923   4.666   3.593   2.708 -0.7162  0.6794 -0.8690
  596SOL    HW2 1924   4.788   3.551   2.629  0.1149  0.6444  0.4020
  597SOL     OW 1925   0.189   3.860   2.682 -0.5163 -0.0885  0.0908
  597SOL    HW1 1926   0.247   3.926   2.719 -0.8768  0.3575 -0.1241
  597SOL    HW2 1927   0.203   3.782   2.735 -0.6703  0.3936  0.8582
  598SOL     OW 1928   2.596   4.373   3.154  0.1905 -0.1067  0.1578
  598SOL    HW1 1929   2.666   4.331   3.104 -0.6118 -2.0869  0.5781
  598SOL    HW2 1930   2.567   4.446   3.099  0.6276 -1.0570 -1.3919
  599SOL     OW 1931   4.283   3.953   4.482  0.4859  0.5328  0.5920
  599SOL    HW1 1932   4.339   4.028   4.502 -0.2029  1.1923  0.1287
  599SOL    HW2 1933   4.231   3.939   4.562  1.4477 -0.2224  1.1006
  600SOL     OW 1934   0.886   4.029   4.167 -0.0818 -0.4780  0.6787
  600SOL    HW1 1935   0.818   4.079   4.122  1.1822  0.1659 -0.6067
  600SOL    HW2 1936   0.846   3.944   4.185 -0.3961 -1.1656 -2.6229
  601SOL     OW 1937   4.455   0.232   4.365  0.4822 -0.7212  0.1968
  601SOL    HW1 1938   4.534   0.269   4.325 -0.4221 -0.3188 -1.2992
  601SOL    HW2 1939   4.460   0.138   4.345  1.2383 -0.9301  1.2960
  602SOL     OW 1940   3.739   4.426   1.128 -0.2761 -0.4900  0.3816
  602SOL    HW1 1941   3.719   4.494   1.192 -0.2920 -0.9734  0.8980
  602SOL    HW2 1942   3.667   4.432   1.064 -0.8543 -0.7298  1.0047
  603SOL     OW 1943   0.288   4.370   3.478  0.1473 -0.3439 -0.6412
  603SOL    HW1 1944   0.362   4.428   3.462  0.0027 -0.0670 -0.3286
  603SOL    HW2 1945   0.243   4.409   3.553 -0.3914 -0.4361 -0.9128
  604SOL     OW 1946   1.074   4.163   0.512  0.1641 -0.3047  0.2754
  604SOL    HW1 1947   1.064   4.068   0.499 -1.1350 -0.2465  0.6908
  604SOL    HW2 1948   1.142   4.188   0.451  0.2352 -1.4463 -0.1473
  605SOL     OW 1949   0.117   3.959   1.117 -0.0146 -0.3249 -0.2736
  605SOL    HW1 1950   0.136   3.965   1.211 -1.3738 -0.7040  0.0414
  605SOL    HW2 1951   0.160   4.037   1.079  0.7079 -0.2725  0.6169
  606SOL     OW 1952   3.456   0.201   2.012 -0.0120 -0.6962  0.0568
  606SOL    HW1 1953   3.421   0.145   2.081  0.2537 -2.0001 -0.8234
  606SOL    HW2 1954   3.392   0.272   2.004 -1.0192 -1.5454  0.3556
  607SOL     OW 1955   4.718   0.423   0.130  0.3292 -0.1627  0.1201
  607SOL    HW1 1956   4.701   0.329   0.135  0.1447 -0.2021 -0.9196
  607SOL    HW2 1957   4.744   0.437   0.039  0.2591  0.8119  0.2400
  608SOL     OW 1958   4.423   1.119   3.543  0.3354 -0.3490  0.2429
  608SOL    HW1 1959   4.487   1.061   3.585  1.4297  0.2949 -0.4975
  608SOL    HW2 1960   4.338   1.083   3.570  0.9762 -0.6432  2.0760
  609SOL     OW 1961   0.872   3.216   0.605  0.2250  0.4670 -0.1877
  609SOL    HW1 1962   0.819   3.282   0.652  1.0990  0.0401  1.4928
  609SOL    HW2 1963   0.958   3.256   0.597  0.2510  0.2782 -0.9090
  610SOL     OW 1964   2.845   1.943   3.206  0.0366  0.0808 -0.4876
  610SOL    HW1 1965   2.868   1.948   3.298 -2.2314 -0.5076  0.1783
  610SOL    HW2 1966   2.929   1.940   3.160  1.2136  0.3420  1.5354
  611SOL     OW 1967   4.346   2.895   4.299 -0.6160 -0.1014 -0.4053
  611SOL    HW1 1968   4.388   2.954   4.237 -0.2791 -0.8496 -0.9024
  611SOL    HW2 1969   4.261   2.874   4.260 -0.5022 -0.3863 -0.5011
  612SOL     OW 1970   2.344   1.700   2.918  0.1199 -0.2350 -0.2176
  612SOL    HW1 1971   2.296   1.628   2.878  0.5830 -0.6272 -0.0755
  612SOL    HW2 1972   2.345   1.679   3.012 -0.8942  0.6364  0.0137
  613SOL     OW 1973   0.402   2.274   2.519 -0.4936 -0.6017 -0.2801
  613SOL    HW1 1974   0.363   2.197   2.478  2.3163 -0.8953 -2.7520
  613SOL    HW2 1975   0.456   2.238   2.590  0.6400 -0.9435 -1.2884
  614SOL     OW 1976   1.298   2.305   0.466  0.0213  0.3435 -0.1269
  614SOL    HW1 1977   1.249   2.380   0.499  1.3339  1.4822 -0.6329
  614SOL    HW2 1978   1.258   2.284   0.381 -1.2185 -0.4407  0.6248
  615SOL     OW 1979   1.307   0.388   4.860  0.3818  0.2359 -0.3285
  615SOL    HW1 1980   1.390   0.403   4.815  1.0475 -0.3627  0.6673
  615SOL    HW2 1981   1.274   0.306   4.823  0.2317  0.4587 -0.7029
  616SOL     OW 1982   2.724   2.510   2.855 -0.3467  0.1222 -0.0810
  616SOL    HW1 1983   2.752   2.581   2.797 -2.0532  0.9887  0.0887
  616SOL    HW2 1984   2.793   2.503   2.921 -0.1283  1.5760 -0.1421
  617SOL     OW 1985   2.827   1.724   3.900 -0.3191  0.4971  0.3506
  617SOL    HW1 1986   2.831   1.808   3.854 -1.5201  1.3853  1.7854
  617SOL    HW2 1987   2.734   1.705   3.908 -0.1153 -0.0708  1.6098
  618SOL     OW 1988   1.652   3.899   4.030  0.4976 -0.1439  0.4429
  618SOL    HW1 1989   1.646   3.868   3.939 -1.4237  1.8429 -0.1809
  618SOL    HW2 1990   1.630   3.822   4.083 -1.2219 -0.6538 -0.9085
  619SOL     OW 1991   4.061   1.649   1.566  0.2645  0.1670  0.1054
  619SOL    HW1 1992   4.112   1.670   1.645  2.5031 -1.2108 -0.8710
  619SOL    HW2 1993   3.994   1.587   1.597 -0.7097  1.7809  1.3685
  620SOL     OW 1994   3.634   0.466   3.191 -0.1117  0.5274 -0.0791
  620SOL    HW1 1995   3.553   0.485   3.237  0.0733 -1.1396  1.0060
  620SOL    HW2 1996   3.610   0.400   3.126 -0.1619  2.1135 -1.7598
  621SOL     OW 1997   4.392   2.479   0.718 -0.4538  0.1839  0.3026
  621SOL    HW1 1998   4.381   2.404   0.777 -0.6839  0.5207  0.6886
  621SOL    HW2 1999   4.341   2.549   0.758 -1.5893  0.0867 -0.9203
  622SOL     OW 2000   3.945   4.703   2.656 -0.1466  0.0758  0.1016
  622SOL    HW1 2001   3.863   4.678   2.614 -1.2418 -0.6273  2.4780
  622SOL    HW2 2002   3.960   4.793   2.629 -1.9210  0.3468 -0.0828
  623SOL     OW 2003   4.291   2.184   2.762  0.4538 -0.7461 -0.1176
  623SOL    HW1 2004   4.239   2.104   2.756  0.3001 -0.5976 -0.8372
  623SOL    HW2 2005   4.342   2.186   2.680 -0.6275  0.6368 -0.7962
  624SOL     OW 2006   3.010   0.877   1.251  0.0181  0.5308 -0.6322
  624SOL    HW1 2007   3.027   0.831   1.169  0.8173  2.5002 -1.6437
  624SOL    HW2 2008   2.950   0.820   1.299  2.0137 -2.2061 -1.1419
  625SOL     OW 2009   4.549   0.911   1.422  0.2159  0.2477  0.2497
  625SOL    HW1 2010   4.615   0.935   1.487  0.1414 -1.1986  0.8786
  625SOL    HW2 2011   4.541   0.816   1.429 -2.9245  0.4876  1.1542
  626SOL     OW 2012   0.215   1.185   1.303 -0.1818  0.2630  0.1934
  626SOL    HW1 2013   0.225   1.099   1.263 -0.1856  0.2133  0.3000
  626SOL    HW2 2014   0.253   1.176   1.390  0.7974  0.6656 -0.1829
  627SOL     OW 2015   1.799   4.805   4.910  0.3718 -0.1658 -0.2338
  627SOL    HW1 2016   1.852   4.747   4.855  1.3705  0.6278 -0.1320
  627SOL    HW2 2017   1.863   4.853   4.963 -0.0737  3.6092 -2.7304
  628SOL     OW 2018   3.809   4.137   2.557 -0.4494  0.1398  0.4685
  628SOL    HW1 2019   3.833   4.212   2.610 -1.1661  0.8420 -0.1682
  628SOL    HW2 2020   3.755   4.082   2.615 -1.6171  1.1267  0.3501
  629SOL     OW 2021   2.927   1.442   3.859  0.2146  0.9301  0.1321
  629SOL    HW1 2022   3.014   1.406   3.840  0.2356  0.9640  0.1648
  629SOL    HW2 2023   2.939   1.537   3.860 -0.0580  0.9952 -1.0353
  630SOL     OW 2024   1.878   2.260   2.978 -0.0766  0.2555  0.7871
  630SOL    HW1 2025   1.908   2.238   2.890  3.0043  0.9820  1.5211
  630SOL    HW2 2026   1.832   2.182   3.008  0.0180 -0.5217 -0.9479
  631SOL     OW 2027   4.394   2.232   2.515 -0.1887  0.3818 -0.0992
  631SOL    HW1 2028   4.356   2.306   2.468 -0.3852 -0.0324 -0.5962
  631SOL    HW2 2029   4.462   2.271   2.570  3.2738  0.4941 -3.9593
  632SOL     OW 2030   4.604   1.960   3.416  0.5740  0.5552 -0.3594
  632SOL    HW1 2031   4.665   2.015   3.463 -0.6765  1.2573  0.5028
  632SOL    HW2 2032   4.654   1.925   3.342  2.2349  0.3845  0.8005
  633SOL     OW 2033   0.806   1.074   1.643 -0.9576  0.9197 -0.6804
  633SOL    HW1 2034   0.804   0.979   1.639  0.6178  0.5961  2.6997
  633SOL    HW2 2035   0.886   1.099   1.597  1.0330  0.1241  2.1369
  634SOL     OW 2036   4.038   4.723   0.811 -0.0033  0.2138 -0.3521
  634SOL    HW1 2037   3.962   4.679   0.848  1.6662 -2.2659  0.3437
  634SOL    HW2 2038   4.105   4.716   0.879  1.2709  1.1742 -1.4627
  635SOL     OW 2039   4.579   3.590   2.262 -0.8639  0.8104 -0.0558
  635SOL    HW1 2040   4.597   3.663   2.203  1.2458  0.0517 -0.4373
  635SOL    HW2 2041   4.666   3.555   2.285 -1.7967 -2.1804 -0.6679
  636SOL     OW 2042   0.857   1.893   0.830 -0.5593  0.4526 -0.2741
  636SOL    HW1 2043   0.783   1.952   0.847 -2.3111 -1.8584  0.6894
  636SOL    HW2 2044   0.904   1.889   0.913 -0.4973  0.4093 -0.3114
  637SOL     OW 2045   2.309   4.690   4.314 -0.1946 -0.0162 -0.1144
  637SOL    HW1 2046   2.398   4.691   4.350 -0.2481  1.1089  0.0271
  637SOL    HW2 2047   2.314   4.630   4.240  0.5733 -0.3029  0.1570
  638SOL     OW 2048   2.291   3.899   3.565 -0.2384  0.7334  0.2191
  638SOL    HW1 2049   2.277   3.944   3.648 -2.1104  1.3574 -0.3955
  638SOL    HW2 2050   2.272   3.965   3.498  0.4311  0.0107 -0.7175
  639SOL     OW 2051   2.240   4.716   3.349  0.4454  0.1926  0.7777
  639SOL    HW1 2052   2.227   4.630   3.310  0.6860  1.6715 -3.0418
  639SOL    HW2 2053   2.327   4.712   3.389  1.6819 -0.6348 -1.7954
  640SOL     OW 2054   3.590   2.759   0.931  0.1519 -0.1526 -0.2909
  640SOL    HW1 2055   3.620   2.687   0.987 -0.8998 -1.8811 -1.8591
  640SOL    HW2 2056   3.671   2.793   0.892  0.5965 -1.0462 -0.1796
  641SOL     OW 2057   4.920   3.735   4.023 -0.0339 -0.4031 -0.2135
  641SOL    HW1 2058   4.826   3.752   4.021  0.0102  0.4035  2.0750
  641SOL    HW2 2059   4.934   3.671   3.953 -2.4596 -1.3844  0.1067
  642SOL     OW 2060   3.708   1.345   0.411  0.8297 -0.6185  0.2510
  642SOL    HW1 2061   3.783   1.372   0.358 -0.2131 -0.1571 -1.0409
  642SOL    HW2 2062   3.679   1.425   0.454  1.7204 -1.0081  1.6093
  643SOL     OW 2063   3.781   2.957   0.892 -0.4861  0.1693 -0.3145
  643SOL    HW1 2064   3.837   2.933   0.966 -1.1764 -2.8435 -0.6576
  643SOL    HW2 2065   3.822   2.916   0.816 -1.2447  0.9490 -1.1724
  644SOL     OW 2066   2.180   3.938   3.054  0.7525  0.1596 -0.0140
  644SOL    HW1 2067   2.190   4.024   3.015 -0.3570  1.0576  1.5771
  644SOL    HW2 2068   2.270   3.912   3.078  0.9012  1.8464  1.4210
  645SOL     OW 2069   2.965   4.235   1.937  0.5498 -0.5696  0.1200
  645SOL    HW1 2070   3.005   4.218   1.852 -0.8329  1.1473 -0.9499
  645SOL    HW2 2071   3.032   4.282   1.987 -0.2375  3.3111 -2.0449
  646SOL     OW 2072   0.972   4.629   3.988  0.1832 -0.2086  0.1041
  646SOL    HW1 2073   0.880   4.603   3.990  0.2642 -0.4804  1.1087
  646SOL    HW2 2074   0.977   4.695   3.920 -1.1676  1.2751  1.3639
  647SOL     OW 2075   3.720   1.973   0.934 -0.8442  0.0139 -0.5341
  647SOL    HW1 2076   3.808   2.005   0.913 -0.7808 -0.5066 -1.0921
  647SOL    HW2 2077   3.662   2.045   0.910 -0.4667  1.0528  1.4591
  648SOL     OW 2078   1.832   3.894   3.201  0.0985 -0.0368  0.1288
  648SOL    HW1 2079   1.876   3.863   3.280  0.6451 -1.4083 -0.6767
  648SOL    HW2 2080   1.894   3.877   3.130 -0.9165 -0.1539 -0.7772
  649SOL     OW 2081   3.427   4.035   0.747  0.3162 -0.4349  0.2631
  649SOL    HW1 2082   3.349   3.995   0.785  0.1575  0.0165  0.4249
  649SOL    HW2 2083   3.468   3.965   0.696 -0.6451 -0.4455 -0.5037
  650SOL     OW 2084   0.296   4.811   0.687  0.7800  0.3256 -0.5924
  650SOL    HW1 2085   0.346   4.778   0.762  1.4513  2.4272 -0.0269
  650SOL    HW2 2086   0.235   4.874   0.726 -0.9081 -0.6595 -1.5328
  651SOL     OW 2087   1.453   3.948   0.186  0.4833  0.1667  0.1686
  651SOL    HW1 2088   1.473   4.040   0.168 -1.0062  0.6350  0.7733
  651SOL    HW2 2089   1.527   3.900   0.149 -0.5426  1.2774 -3.8440
  652SOL     OW 2090  -0.007   4.935   3.487 -0.4613 -0.2512  0.2103
  652SOL    HW1 2091  -0.068   5.000   3.523  1.3012  1.5587  0.1252
  652SOL    HW2 2092   0.079   4.976   3.495  0.7224 -2.5205 -0.0871
  653SOL     OW 2093   1.241   4.171   4.751  0.0656  0.3041 -0.4250
  653SOL    HW1 2094   1.306   4.241   4.757  0.4443 -0.0921  0.2676
  653SOL    HW2 2095   1.190   4.192   4.672 -0.0063  1.4993 -0.0814
  654SOL     OW 2096   0.157   3.366   1.647 -0.1410  0.3094 -0.1455
  654SOL    HW1 2097   0.241   3.348   1.689 -1.1655 -1.6368  1.2781
  654SOL    HW2 2098   0.104   3.406   1.716 -0.7483  0.4086 -0.6596
  655SOL     OW 2099   3.353   0.153   2.656 -0.4103  0.2533  0.3931
  655SOL    HW1 2100   3.291   0.202   2.600 -1.5419  0.0344  1.4185
  655SOL    HW2 2101   3.345   0.063   2.626  0.8294  0.4913 -0.7297
  656SOL     OW 2102   3.703   3.018   3.086  0.0024  0.4984  0.2303
  656SOL    HW1 2103   3.658   3.031   3.003 -1.8050 -1.4871  0.7728
  656SOL    HW2 2104   3.769   3.087   3.090  0.4768  0.3817 -3.0273
  657SOL     OW 2105   1.147   1.219   0.276  0.0279 -0.5148  0.0378
  657SOL    HW1 2106   1.232   1.263   0.279  0.9412 -2.0557 -1.5704
  657SOL    HW2 2107   1.161   1.135   0.319 -0.8951 -0.4958  0.4059
  658SOL     OW 2108   3.035   0.418   4.288 -0.3305 -0.5009  0.1584
  658SOL    HW1 2109   3.130   0.408   4.289  0.1328  2.8152  0.5941
  658SOL    HW2 2110   3.009   0.395   4.199  1.0073 -0.4303 -0.2663
  659SOL     OW 2111   4.020   1.708   1.317  0.9505 -0.1621 -0.2748
  659SOL    HW1 2112   4.036   1.684   1.408  0.2461 -0.7023 -0.2889
  659SOL    HW2 2113   4.040   1.628   1.267  1.9509  0.3157 -0.6608
  660SOL     OW 2114   2.415   4.997   3.615 -0.5842 -0.2572  0.4271
  660SOL    HW1 2115   2.370   4.921   3.578  0.3288 -0.1148 -1.0735
  660SOL    HW2 2116   2.346   5.060   3.631 -0.9584  0.3190 -2.7210
  661SOL     OW 2117   0.476   4.301   2.023  0.7446  0.4215  0.2004
  661SOL    HW1 2118   0.527   4.333   1.948 -0.8302  2.4634 -0.0972
  661SOL    HW2 2119   0.487   4.368   2.090 -1.4658  0.9407  0.1253
  662SOL     OW 2120   3.588   0.926   2.740  0.7468  0.3479 -0.2159
  662SOL    HW1 2121   3.613   0.845   2.697  1.0802  0.4320 -0.1825
  662SOL    HW2 2122   3.614   0.914   2.831  2.0558  1.0100 -0.4747
  663SOL     OW 2123   4.229   0.644   3.181 -0.5373  0.0560  0.3001
  663SOL    HW1 2124   4.216   0.663   3.274  4.5624  0.0486  1.3225
  663SOL    HW2 2125   4.273   0.722   3.147 -0.3274 -0.8247 -1.5659
  664SOL     OW 2126   2.335   1.699   4.793  0.0738 -0.2001 -0.5731
  664SOL    HW1 2127   2.269   1.638   4.760 -0.2543  0.1494 -0.5608
  664SOL    HW2 2128   2.416   1.671   4.750  0.1493 -1.3092  0.2397
  665SOL     OW 2129   3.658   4.121   1.639 -0.5075 -0.2053 -0.0563
  665SOL    HW1 2130   3.678   4.214   1.652 -1.5117 -0.0795  0.7528
  665SOL    HW2 2131   3.563   4.119   1.629 -0.2915 -0.9067 -2.4814
  666SOL     OW 2132   2.878   3.515   2.188 -0.2975  0.9601  0.3036
  666SOL    HW1 2133   2.926   3.523   2.270  3.6491 -0.7772 -1.5334
  666SOL    HW2 2134   2.841   3.601   2.173  0.1067  1.7278  3.1647
  667SOL     OW 2135   3.521   3.242   0.447  0.7927  0.1049 -0.4111
  667SOL    HW1 2136   3.518   3.245   0.543 -0.0708  1.1360 -0.4541
  667SOL    HW2 2137   3.609   3.209   0.428  1.8479  2.0418  0.7341
  668SOL     OW 2138   4.378   3.065   2.521  0.4173  0.1084 -0.3295
  668SOL    HW1 2139   4.394   3.152   2.485 -1.0566  0.1782 -0.8992
  668SOL    HW2 2140   4.288   3.069   2.554  0.5639 -0.9962  0.2574
  669SOL     OW 2141   4.959   2.578   3.506 -0.1102 -0.2318  0.1581
  669SOL    HW1 2142   4.948   2.551   3.414  1.2910  0.6381 -0.2951
  669SOL    HW2 2143   5.054   2.583   3.518 -0.2885  0.4284  1.4410
  670SOL     OW 2144   1.804   1.782   3.219  0.4357 -0.4363  0.0856
  670SOL    HW1 2145   1.790   1.693   3.253  2.6744 -0.9799 -0.2666
  670SOL    HW2 2146   1.771   1.778   3.129  1.3824 -1.2084 -0.2404
  671SOL     OW 2147   1.570   3.986   0.449 -0.9792 -0.6720 -0.2325
  671SOL    HW1 2148   1.651   3.938   0.431 -0.2681 -0.3714  1.9084
  671SOL    HW2 2149   1.507   3.951   0.386 -0.2031 -3.5928  0.4709
  672SOL     OW 2150   0.811   3.901   3.723  0.3399 -0.2970  0.5428
  672SOL    HW1 2151   0.833   3.988   3.756  0.0320 -0.1268  0.3028
  672SOL    HW2 2152   0.761   3.860   3.793 -0.0866 -0.0327  0.3981
  673SOL     OW 2153   1.606   4.640   4.092 -0.0267 -0.4469  0.7984
  673SOL    HW1 2154   1.524   4.661   4.048  0.5861 -0.5489 -0.4170
  673SOL    HW2 2155   1.603   4.545   4.106 -0.7495 -0.2540  2.1001
  674SOL     OW 2156   1.229   4.504   0.007  0.4275 -0.1206  0.1616
  674SOL    HW1 2157   1.160   4.460   0.057  0.0476  1.4542  1.1079
  674SOL    HW2 2158   1.181   4.566  -0.049  0.9617 -0.6539 -0.9134
  675SOL     OW 2159   4.765   0.862   2.425 -0.1397  0.8850  0.3638
  675SOL    HW1 2160   4.749   0.831   2.514  0.6852  0.6131  0.4286
  675SOL    HW2 2161   4.790   0.783   2.376 -1.9084  0.7912 -0.4549
  676SOL     OW 2162   1.256   3.454   3.006  0.8803  0.3043  0.2109
  676SOL    HW1 2163   1.202   3.425   3.079  1.9890 -1.8646  0.2762
  676SOL    HW2 2164   1.341   3.411   3.021  1.8531  1.6445 -1.1450
  677SOL     OW 2165   3.057   0.478   0.093 -0.7729 -0.4924  0.2269
  677SOL    HW1 2166   3.094   0.393   0.117  1.0829  0.5140  1.2265
  677SOL    HW2 2167   3.127   0.521   0.043 -1.5649  0.5503 -0.0236
  678SOL     OW 2168   1.027   4.961   1.159 -0.1457 -0.2797  0.3725
  678SOL    HW1 2169   1.063   5.041   1.122  1.3076 -0.3249  1.5756
  678SOL    HW2 2170   1.074   4.891   1.114 -0.0868 -0.3983  0.6179
  679SOL     OW 2171   0.224   0.990   2.113 -0.0825 -0.9759 -0.2221
  679SOL    HW1 2172   0.145   0.938   2.098  0.5712 -2.0260 -0.1472
  679SOL    HW2 2173   0.225   1.006   2.207 -0.1857 -1.0012 -0.2169
  680SOL     OW 2174   3.398   3.562   4.439 -0.9768 -0.0991 -0.6264
  680SOL    HW1 2175   3.311   3.524   4.430 -1.1201 -0.4054  1.5079
  680SOL    HW2 2176   3.423   3.544   4.530  1.9329 -1.3117 -1.5331
  681SOL     OW 2177   4.001   2.100   2.527  0.7125  0.2814  0.0765
  681SOL    HW1 2178   4.022   2.044   2.602 -2.5038 -0.0699  0.8341
  681SOL    HW2 2179   3.922   2.062   2.489  2.0748  0.5716 -3.4743
  682SOL     OW 2180   1.658   1.996   3.739  0.2752  0.2190 -0.3840
  682SOL    HW1 2181   1.704   2.076   3.712  1.6643 -0.6237 -0.5958
  682SOL    HW2 2182   1.574   2.001   3.694 -0.4049  2.4053  0.9752
  683SOL     OW 2183   0.697   2.592   2.809  0.7004 -0.1590 -0.1742
  683SOL    HW1 2184   0.772   2.651   2.798 -0.5653  1.1704 -2.7503
  683SOL    HW2 2185   0.731   2.505   2.789  1.6724  0.3397 -0.7394
  684SOL     OW 2186   2.768   0.281   3.293  0.2363  0.2114 -0.0934
  684SOL    HW1 2187   2.739   0.241   3.375 -3.1354  0.7698 -0.8719
  684SOL    HW2 2188   2.695   0.267   3.232  1.6396  1.8833 -2.3137
  685SOL     OW 2189   2.228   2.109   4.105 -0.5331 -0.0069  0.0335
  685SOL    HW1 2190   2.179   2.030   4.083 -0.0142 -0.2710 -0.1965
  685SOL    HW2 2191   2.311   2.077   4.141 -0.1603  0.4261 -0.4216
  686SOL     OW 2192   4.950   0.793   3.068  0.3214 -0.2249 -0.0470
  686SOL    HW1 2193   4.895   0.723   3.103 -0.0895  0.3955  0.5708
  686SOL    HW2 2194   5.040   0.758   3.074  0.1820 -0.4466  0.8623
  687SOL     OW 2195   1.513   3.642   0.327 -0.2508  0.1596  0.3462
  687SOL    HW1 2196   1.439   3.696   0.354 -0.4170  0.7327 -1.1578
  687SOL    HW2 2197   1.480   3.589   0.255  0.8273  0.5230 -0.4466
  688SOL     OW 2198   1.171   0.821   2.855  0.3837 -0.0772 -0.2764
  688SOL    HW1 2199   1.217   0.881   2.797 -0.7630  0.8067 -0.3100
  688SOL    HW2 2200   1.078   0.839   2.840  0.0443 -0.2675  1.3476
  689SOL     OW 2201   0.706   1.540   4.415  0.2811 -0.2071  0.1493
  689SOL    HW1 2202   0.670   1.470   4.469 -0.3614  0.2073  0.2705
  689SOL    HW2 2203   0.759   1.592   4.475  1.2615 -0.9340 -0.0720
  690SOL     OW 2204   3.919   0.256   4.264 -0.2959  0.3585 -0.0374
  690SOL    HW1 2205   3.948   0.347   4.255 -0.2516  0.3306 -0.1841
  690SOL    HW2 2206   3.962   0.210   4.192 -0.2761  0.2106  0.0681
  691SOL     OW 2207   0.766   2.202   3.554  0.3425 -0.2189 -0.3999
  691SOL    HW1 2208   0.862   2.193   3.550  0.4030 -0.3450  0.9338
  691SOL    HW2 2209   0.752   2.282   3.604 -0.2693  0.4246 -1.5518
  692SOL     OW 2210   2.118   0.063   1.834  0.8630  0.2478  0.6484
  692SOL    HW1 2211   2.182   0.133   1.836  0.0121  1.0455  0.6594
  692SOL    HW2 2212   2.160  -0.007   1.784  0.9205  1.5944 -1.2795
  693SOL     OW 2213   4.383   4.363   2.571 -0.4165 -0.3422 -0.3497
  693SOL    HW1 2214   4.429   4.290   2.529  2.6244 -0.3641  2.5380
  693SOL    HW2 2215   4.453   4.427   2.589 -2.4235  1.8381  0.1784
  694SOL     OW 2216   3.732   3.761   4.546 -0.3071 -0.5272 -0.1976
  694SOL    HW1 2217   3.762   3.849   4.522 -1.7100 -0.2274 -1.0034
  694SOL    HW2 2218   3.664   3.775   4.611  0.0582 -1.0751  0.3111
  695SOL     OW 2219   2.598   3.035   3.335 -0.0541 -0.7971 -0.6203
  695SOL    HW1 2220   2.588   3.037   3.430  1.0851 -0.7950 -0.4792
  695SOL    HW2 2221   2.542   3.105   3.303  2.2292  1.6638  0.3623
  696SOL     OW 2222   2.017   0.323   3.003 -0.0938 -0.1680 -0.1813
  696SOL    HW1 2223   1.954   0.258   2.973  0.1836 -0.6073  0.1892
  696SOL    HW2 2224   1.965   0.386   3.053 -0.4205  0.0978 -0.8412
  697SOL     OW 2225   4.692   1.177   4.522 -0.2472  0.2331  0.5642
  697SOL    HW1 2226   4.642   1.157   4.442  0.6232  1.1587 -0.2310
  697SOL    HW2 2227   4.626   1.210   4.583 -1.4449 -3.0797  1.2943
  698SOL     OW 2228   4.955   4.862   0.047  0.8327  0.3492  0.2143
  698SOL    HW1 2229   4.965   4.946   0.091  0.8443 -0.2253  1.3408
  698SOL    HW2 2230   4.864   4.862   0.015  1.1058  1.1525 -0.6058
  699SOL     OW 2231   3.249   3.640   0.852  0.1814 -0.2285 -0.0847
  699SOL    HW1 2232   3.260   3.605   0.764  0.9825  1.0844 -0.5342
  699SOL    HW2 2233   3.206   3.569   0.901  0.0134 -1.0918 -1.4309
  700SOL     OW 2234   3.813   3.172   0.363  0.3032  0.1803 -0.4557
  700SOL    HW1 2235   3.774   3.224   0.292 -0.2342  1.5274  0.7645
  700SOL    HW2 2236   3.903   3.202   0.367  0.1783  0.5315 -0.2048
  701SOL     OW 2237   2.840   2.597   4.622  0.0442 -0.2982 -0.0855
  701SOL    HW1 2238   2.851   2.543   4.544 -0.7646  0.0865 -0.4795
  701SOL    HW2 2239   2.929   2.622   4.647  0.2712  0.2788 -1.3932
  702SOL     OW 2240   4.687   4.776   2.076  0.5135  0.3269  0.0154
  702SOL    HW1 2241   4.618   4.712   2.056  0.8399 -0.5757  1.6144
  702SOL    HW2 2242   4.755   4.725   2.120  1.6351  1.4447 -0.3772
  703SOL     OW 2243   2.114   2.720   4.976 -0.2202  0.1030  0.5266
  703SOL    HW1 2244   2.028   2.703   4.938  1.2417  0.0643 -3.1387
  703SOL    HW2 2245   2.124   2.654   5.044 -2.7797 -0.3159  0.5709
  704SOL     OW 2246   1.915   1.303   2.620  0.3619 -0.2187 -0.0935
  704SOL    HW1 2247   1.898   1.339   2.707  0.6728  0.1923 -0.2026
  704SOL    HW2 2248   1.879   1.214   2.624  0.8800 -0.4030  0.6320
  705SOL     OW 2249   2.215   1.679   0.717 -0.2297  0.1694 -0.2054
  705SOL    HW1 2250   2.287   1.683   0.654 -0.2012 -1.5213 -0.3257
  705SOL    HW2 2251   2.139   1.713   0.670 -0.3553 -1.6480 -1.4211
  706SOL     OW 2252   0.305   2.933   2.769  0.5089  0.2335 -0.5563
  706SOL    HW1 2253   0.317   2.912   2.677 -1.2098 -2.4714 -0.2650
  706SOL    HW2 2254   0.359   2.869   2.816  1.6336  1.7832  0.3892
  707SOL     OW 2255   3.979   4.165   0.200 -0.1149 -0.1319 -0.2624
  707SOL    HW1 2256   4.007   4.077   0.223 -1.4861 -0.3375  0.7579
  707SOL    HW2 2257   3.890   4.173   0.236  0.3884  2.0353  0.7295
  708SOL     OW 2258   3.510   1.162   2.369 -0.1318  0.3918 -0.1960
  708SOL    HW1 2259   3.576   1.220   2.331  0.4072 -0.9716 -1.4372
  708SOL    HW2 2260   3.490   1.099   2.300 -1.0069 -0.6475  0.9484
  709SOL     OW 2261   1.547   0.553   2.955  0.2021  0.6293  0.2988
  709SOL    HW1 2262   1.579   0.472   2.994  0.3986  0.1107 -0.9068
  709SOL    HW2 2263   1.451   0.545   2.958  0.2154  0.5474  0.5560
  710SOL     OW 2264   2.647   2.154   2.266 -0.1331 -0.0371 -0.2400
  710SOL    HW1 2265   2.674   2.224   2.325 -2.0304  0.3165  0.2643
  710SOL    HW2 2266   2.712   2.155   2.196  0.0170  2.0694 -0.1202
  711SOL     OW 2267   2.118   0.863   2.207 -0.1196  0.5195 -0.4329
  711SOL    HW1 2268   2.152   0.919   2.276 -1.2403  0.6578  0.0355
  711SOL    HW2 2269   2.030   0.897   2.189 -0.9210 -1.2060  0.0257
  712SOL     OW 2270   1.705   1.811   1.854 -0.0016  0.0781  0.3967
  712SOL    HW1 2271   1.745   1.730   1.886  1.9119  0.0865 -1.6973
  712SOL    HW2 2272   1.658   1.785   1.775 -2.5254  0.4436  1.7021
  713SOL     OW 2273   4.050   3.328   1.590  0.3338  0.4480  0.5704
  713SOL    HW1 2274   3.984   3.334   1.521 -0.2166 -0.0398  1.0352
  713SOL    HW2 2275   4.080   3.418   1.604  0.7633  0.4912 -0.5953
  714SOL     OW 2276   1.375   0.082   4.148  0.0349 -0.4492 -0.6431
  714SOL    HW1 2277   1.382   0.177   4.160  2.0763 -0.2277 -2.8606
  714SOL    HW2 2278   1.440   0.045   4.207 -0.9763 -0.5338  0.4518
  715SOL     OW 2279   2.889   2.549   2.613 -0.2746  0.0554 -0.7362
  715SOL    HW1 2280   2.970   2.550   2.662  0.5860 -0.9980 -2.0753
  715SOL    HW2 2281   2.909   2.596   2.531 -1.3865  0.9099 -0.5546
  716SOL     OW 2282   4.647   1.959   1.266 -0.1392 -0.5723  0.0941
  716SOL    HW1 2283   4.702   2.032   1.236 -0.0744 -0.7562 -0.2379
  716SOL    HW2 2284   4.685   1.934   1.351 -0.3505 -0.0223  0.3535
  717SOL     OW 2285   4.828   4.270   2.543  0.4827 -0.0046  0.0804
  717SOL    HW1 2286   4.759   4.331   2.567 -0.4009 -0.4833 -1.0912
  717SOL    HW2 2287   4.827   4.203   2.612  0.2791  0.3789  0.4516
  718SOL     OW 2288   0.590   4.517   0.629 -0.1507 -0.0964  0.1415
  718SOL    HW1 2289   0.661   4.570   0.593 -1.3180  1.0910 -0.5104
  718SOL    HW2 2290   0.632   4.434   0.652  1.5612  0.7775  0.3807
  719SOL     OW 2291   0.140   4.436   2.230 -0.7317  0.1677  0.4209
  719SOL    HW1 2292   0.236   4.438   2.223 -0.2246 -3.1718  3.4465
  719SOL    HW2 2293   0.115   4.525   2.252  1.8189  0.9394  0.4791
  720SOL     OW 2294   3.585   3.371   3.207  0.6745 -0.3764 -0.0032
  720SOL    HW1 2295   3.650   3.438   3.228 -0.5515  0.7686  0.2676
  720SOL    HW2 2296   3.635   3.300   3.167  2.0836  0.4569  0.2454
  721SOL     OW 2297   4.663   4.871  -0.019  0.0954 -0.5074  0.2242
  721SOL    HW1 2298   4.642   4.836   0.067  0.4102  0.7066  0.8158
  721SOL    HW2 2299   4.633   4.961  -0.016  0.9496 -0.1812 -0.6164
  722SOL     OW 2300   2.579   2.979   3.604  0.1618  0.1447 -0.3300
  722SOL    HW1 2301   2.640   3.017   3.667  0.8047 -0.9378 -0.2797
  722SOL    HW2 2302   2.577   2.885   3.625 -2.0042  0.2222  0.0718
  723SOL     OW 2303   1.397   0.766   1.669  0.2176 -0.6237 -0.1112
  723SOL    HW1 2304   1.397   0.760   1.573 -0.7607 -1.9783 -0.0457
  723SOL    HW2 2305   1.396   0.675   1.699 -0.6480 -0.2082  1.1874
  724SOL     OW 2306   4.542   4.206   1.825  0.4294  0.1295 -0.7354
  724SOL    HW1 2307   4.627   4.167   1.847 -0.8490 -1.6911  1.4871
  724SOL    HW2 2308   4.507   4.149   1.757 -0.0082 -0.6443  0.1111
  725SOL     OW 2309   0.182   3.035   3.303 -0.1754 -0.1290 -0.3785
  725SOL    HW1 2310   0.170   3.067   3.213 -1.8272  0.7864  0.1052
  725SOL    HW2 2311   0.274   3.053   3.323  0.1819 -0.2135 -1.8205
  726SOL     OW 2312   3.378   0.243   0.497 -0.3280  0.1935 -0.0074
  726SOL    HW1 2313   3.429   0.244   0.416 -2.6244 -2.0325 -1.6044
  726SOL    HW2 2314   3.417   0.173   0.549 -1.4693 -1.2619 -1.0674
  727SOL     OW 2315   2.281   4.719   0.264 -0.0659  0.1564 -0.2865
  727SOL    HW1 2316   2.308   4.795   0.213  1.3360 -2.0014 -3.0389
  727SOL    HW2 2317   2.188   4.708   0.242  0.1512  0.1213 -1.2169
  728SOL     OW 2318   2.254   1.357   4.688  0.4464  0.4204  1.0799
  728SOL    HW1 2319   2.279   1.330   4.600 -1.8372 -2.5192  1.1601
  728SOL    HW2 2320   2.291   1.290   4.745 -2.5011 -0.8510  1.6962
  729SOL     OW 2321   1.437   4.951   0.540  0.2010  0.0789  0.1208
  729SOL    HW1 2322   1.418   4.945   0.447  0.7578  1.1061 -0.0710
  729SOL    HW2 2323   1.529   4.926   0.547 -0.4277 -2.3222  0.7174
  730SOL     OW 2324   4.141   1.217   4.347 -0.0436  0.3317  0.1370
  730SOL    HW1 2325   4.057   1.172   4.346 -0.1324  0.4662 -1.3356
  730SOL    HW2 2326   4.195   1.168   4.285  0.2304  1.5476 -0.6261
  731SOL     OW 2327   2.937   0.639   2.684 -0.0883  0.5360 -0.4497
  731SOL    HW1 2328   2.921   0.612   2.594  0.8017  1.7495 -1.0074
  731SOL    HW2 2329   2.993   0.570   2.720 -2.3469 -1.1802 -0.0183
  732SOL     OW 2330   0.468   4.066   2.423  0.5531 -0.3712 -0.0058
  732SOL    HW1 2331   0.406   3.997   2.448  0.3554  0.1035  0.8644
  732SOL    HW2 2332   0.540   4.057   2.485  0.3132  0.4868  0.4142
  733SOL     OW 2333   0.814   1.056   0.444 -0.3763 -0.0285 -0.3458
  733SOL    HW1 2334   0.759   0.988   0.484 -0.0053 -0.4093 -0.4780
  733SOL    HW2 2335   0.903   1.021   0.449 -0.3564 -0.2583 -1.8360
  734SOL     OW 2336   2.353   4.791   0.999  0.3220 -0.1014 -0.3078
  734SOL    HW1 2337   2.399   4.709   1.014  1.7620  0.6321 -0.5287
  734SOL    HW2 2338   2.327   4.820   1.087  0.4652 -0.4205 -0.1584
  735SOL     OW 2339   3.924   4.894   1.270  0.2272 -0.3813 -0.2348
  735SOL    HW1 2340   3.953   4.831   1.336  0.3417 -0.9805 -0.8371
  735SOL    HW2 2341   3.997   4.899   1.208  0.5627  1.0045  0.2523
  736SOL     OW 2342   4.441   0.159   3.199  0.6357 -0.1328 -0.6182
  736SOL    HW1 2343   4.364   0.114   3.163 -0.4127  0.3389  0.9353
  736SOL    HW2 2344   4.470   0.104   3.272  1.2923  0.1095 -0.6880
  737SOL     OW 2345   3.055   2.873   0.552 -0.6026 -0.1637 -0.0592
  737SOL    HW1 2346   3.060   2.927   0.473 -2.1802  0.4306  0.2128
  737SOL    HW2 2347   3.122   2.805   0.539 -0.3618  0.3216 -1.5775
  738SOL     OW 2348   0.989   4.912   2.992 -0.9042  0.0712 -0.0129
  738SOL    HW1 2349   1.070   4.935   3.038  0.7563 -2.3453 -1.4788
  738SOL    HW2 2350   0.991   4.964   2.912 -1.2667  0.6454  0.3451
  739SOL     OW 2351   0.974   0.359   3.422  0.6512 -0.3857 -0.0169
  739SOL    HW1 2352   0.945   0.446   3.450 -0.7517 -0.7125 -0.4135
  739SOL    HW2 2353   0.996   0.369   3.329 -1.4870 -0.8939 -0.6123
  740SOL     OW 2354   2.506   1.188   3.692  0.2872 -0.3782 -0.8908
  740SOL    HW1 2355   2.566   1.240   3.745  0.4283 -0.6746 -0.7532
  740SOL    HW2 2356   2.543   1.099   3.696  0.7361 -0.2612 -2.1239
  741SOL     OW 2357   0.553   0.780   1.040 -1.0511  0.8947  0.3829
  741SOL    HW1 2358   0.527   0.689   1.025  1.1931  0.1661  0.5349
  741SOL    HW2 2359   0.613   0.800   0.968 -0.7287  1.9125  0.9133
  742SOL     OW 2360   2.414   1.211   4.079 -0.0265  0.6391  0.7608
  742SOL    HW1 2361   2.430   1.302   4.057  1.5121 -0.1046 -1.5258
  742SOL    HW2 2362   2.457   1.198   4.163  0.2213  1.8737  0.8348
  743SOL     OW 2363   3.521   2.007   3.160 -0.5196  1.3686 -0.3734
  743SOL    HW1 2364   3.567   1.925   3.179  0.2692  2.0760  0.9551
  743SOL    HW2 2365   3.473   1.990   3.080  1.9536  0.4983 -1.7747
  744SOL     OW 2366   4.834   2.136   4.102  0.2516 -0.6543 -0.1352
  744SOL    HW1 2367   4.917   2.136   4.149  0.8768 -1.4604 -1.1846
  744SOL    HW2 2368   4.794   2.052   4.125 -0.6667  0.0604  0.9867
  745SOL     OW 2369   4.085   4.280   1.274 -0.2041  0.3996 -0.6209
  745SOL    HW1 2370   4.171   4.263   1.313 -1.4679 -1.2528  1.6835
  745SOL    HW2 2371   4.090   4.242   1.187  1.3429  0.2334 -0.4884
  746SOL     OW 2372   4.537   2.360   2.701 -0.3457 -0.3873 -0.2816
  746SOL    HW1 2373   4.502   2.447   2.683 -0.5219 -0.3398  0.2916
  746SOL    HW2 2374   4.632   2.373   2.705 -0.4346 -0.0207  0.8688
  747SOL     OW 2375   4.080   1.577   0.634  0.6187  0.6702  0.3044
  747SOL    HW1 2376   4.047   1.490   0.658  0.4599  0.3377 -1.0625
  747SOL    HW2 2377   4.175   1.570   0.648  0.6582  0.1393 -0.1730
  748SOL     OW 2378   4.678   4.285   3.135  0.1797 -0.1189  0.0375
  748SOL    HW1 2379   4.661   4.249   3.222 -0.8764 -1.9309 -0.8635
  748SOL    HW2 2380   4.653   4.377   3.142 -0.5620 -0.4052  1.4675
  749SOL     OW 2381   4.067   3.507   4.796  0.0556  0.5518 -0.3195
  749SOL    HW1 2382   4.022   3.496   4.712  2.1364 -0.6305 -1.3576
  749SOL    HW2 2383   4.134   3.574   4.778  0.4806  0.3273  0.4081
  750SOL     OW 2384   1.638   1.394   4.533 -0.0149 -0.1961  0.6698
  750SOL    HW1 2385   1.715   1.363   4.486 -1.7700 -0.0444 -2.5820
  750SOL    HW2 2386   1.662   1.482   4.563  1.4064 -0.5775  0.7406
  751SOL     OW 2387   3.759   1.934   4.642  0.0498 -0.0763  0.1149
  751SOL    HW1 2388   3.812   1.857   4.662 -1.8220 -1.2346  0.8418
  751SOL    HW2 2389   3.797   1.969   4.561  1.6300 -1.0834  0.3685
  752SOL     OW 2390   1.304   2.661   1.790 -0.3663  0.2470  0.1504
  752SOL    HW1 2391   1.343   2.617   1.714  0.2537 -0.6813  0.9746
  752SOL    HW2 2392   1.289   2.590   1.853  1.1506  1.2508  1.7229
  753SOL     OW 2393   2.743   3.802   4.139  0.2210 -0.4338 -0.3381
  753SOL    HW1 2394   2.693   3.841   4.068  1.5742  0.5727 -0.7900
  753SOL    HW2 2395   2.731   3.862   4.213 -3.5830 -2.9249  1.3803
  754SOL     OW 2396   1.882   2.714   3.429 -0.4000  0.1747 -0.2322
  754SOL    HW1 2397   1.888   2.772   3.505  0.3690 -0.4358  0.1807
  754SOL    HW2 2398   1.888   2.772   3.354 -0.6909  0.7378  0.1764
  755SOL     OW 2399   0.476   2.393   4.393 -0.5257 -0.0037 -0.3016
  755SOL    HW1 2400   0.519   2.317   4.432 -1.2781  0.2181  1.0448
  755SOL    HW2 2401   0.383   2.370   4.390 -0.5002  0.0096 -1.9895
  756SOL     OW 2402   4.593   0.872   3.423 -0.7129 -0.3947  0.4699
  756SOL    HW1 2403   4.689   0.873   3.420 -0.7398  0.7823 -1.5556
  756SOL    HW2 2404   4.572   0.893   3.514  0.9266 -1.0447  1.0368
  757SOL     OW 2405   1.169   2.878   0.780 -0.1793  0.0074  0.4195
  757SOL    HW1 2406   1.248   2.870   0.727 -0.2384  1.5938  0.0374
  757SOL    HW2 2407   1.149   2.789   0.807  1.1159 -0.5559 -0.3870
  758SOL     OW 2408   0.273   2.493   1.403 -0.1102  0.1884 -0.5351
  758SOL    HW1 2409   0.348   2.494   1.344  0.4892 -1.6984  0.1095
  758SOL    HW2 2410   0.283   2.570   1.458  1.0098  0.3094 -0.8912
  759SOL     OW 2411   0.992   2.487   3.146 -0.5450  0.0793 -0.2895
  759SOL    HW1 2412   0.976   2.526   3.232  0.8546 -0.4139  0.2110
  759SOL    HW2 2413   0.967   2.556   3.084  0.4051  1.2076  0.5494
  760SOL     OW 2414   1.902   2.032   3.326  0.0539 -0.2605 -0.2917
  760SOL    HW1 2415   1.963   2.048   3.254 -0.0521 -0.6293 -0.4641
  760SOL    HW2 2416   1.853   1.954   3.300  1.1618 -1.4160  0.8964
  761SOL     OW 2417   2.929   4.405   3.438 -0.0727  0.2325  0.4232
  761SOL    HW1 2418   2.932   4.348   3.361 -1.1347  0.1764  0.4075
  761SOL    HW2 2419   3.017   4.440   3.446  0.0002  0.3845 -0.9314
  762SOL     OW 2420   0.367   2.258   0.187 -0.3016 -0.3008 -0.3246
  762SOL    HW1 2421   0.425   2.326   0.222 -0.2952 -0.2984 -0.3393
  762SOL    HW2 2422   0.339   2.294   0.102  0.3602 -0.6827 -0.7121
  763SOL     OW 2423   1.246   3.038   2.352 -0.0700 -0.3855  0.5692
  763SOL    HW1 2424   1.194   2.975   2.403 -0.4940 -2.1362 -1.8823
  763SOL    HW2 2425   1.181   3.091   2.306  0.1134 -2.6961 -2.6471
  764SOL     OW 2426   1.927   2.704   2.982 -0.0089 -0.3927 -0.6344
  764SOL    HW1 2427   1.869   2.741   3.049 -1.0652 -1.3339 -0.9980
  764SOL    HW2 2428   1.962   2.780   2.936 -1.8719  0.2110 -1.1608
  765SOL     OW 2429   4.312   3.018   3.267 -0.6054  0.7768 -1.0831
  765SOL    HW1 2430   4.222   3.000   3.294 -1.1324  3.4273 -0.7674
  765SOL    HW2 2431   4.311   3.008   3.172 -1.0918  0.2141 -1.0185
  766SOL     OW 2432   0.736   1.431   0.818  0.8703 -0.7483  0.1561
  766SOL    HW1 2433   0.658   1.459   0.865  0.1313  1.3912 -2.1403
  766SOL    HW2 2434   0.804   1.424   0.885 -1.1574 -2.4857  2.1867
  767SOL     OW 2435   3.842   3.615   0.932  0.1929  0.4355 -0.2599
  767SOL    HW1 2436   3.761   3.662   0.914  0.7764  1.2176 -0.9042
  767SOL    HW2 2437   3.901   3.682   0.966  0.7399 -0.0176 -0.3120
  768SOL     OW 2438   4.730   1.268   3.267 -0.0300  0.2082  0.4748
  768SOL    HW1 2439   4.664   1.227   3.212  3.1977 -2.4186 -1.8633
  768SOL    HW2 2440   4.722   1.225   3.352 -1.5123  0.2698  0.3860
  769SOL     OW 2441   1.974   0.652   3.028 -0.3505  0.8151  0.3747
  769SOL    HW1 2442   1.922   0.629   2.951  0.1414 -0.1057  0.3066
  769SOL    HW2 2443   1.973   0.748   3.030 -1.8909  0.8293  0.2761
  770SOL     OW 2444   4.082   3.825   2.801  0.6177 -0.2379  0.1034
  770SOL    HW1 2445   4.120   3.783   2.878 -0.4361 -0.8020  0.3250
  770SOL    HW2 2446   4.044   3.754   2.750 -1.0628  0.3920  0.4110
  771SOL     OW 2447   1.732   4.529   0.102  0.6866  0.5844 -0.1394
  771SOL    HW1 2448   1.678   4.516   0.024  1.5884  1.2386 -0.8909
  771SOL    HW2 2449   1.820   4.547   0.068  1.2339  0.2508  1.0407
  772SOL     OW 2450   0.366   1.360   1.919 -0.6815 -0.0252 -0.6101
  772SOL    HW1 2451   0.302   1.318   1.862  1.1240 -0.8620 -2.1169
  772SOL    HW2 2452   0.451   1.345   1.876  0.7494 -0.4131  2.1263
  773SOL     OW 2453   3.811   0.157   1.286 -0.1248 -0.0424  0.0473
  773SOL    HW1 2454   3.781   0.125   1.371 -1.7736 -1.7668 -1.1158
  773SOL    HW2 2455   3.870   0.089   1.254  0.9568  0.8767  0.0330
  774SOL     OW 2456   1.782   2.247   3.702  0.3500  0.2939  0.3255
  774SOL    HW1 2457   1.690   2.254   3.676  0.7820 -1.7121 -2.0427
  774SOL    HW2 2458   1.830   2.293   3.633  1.3975 -3.4842 -1.7355
  775SOL     OW 2459   4.120   3.296   0.862  0.1301  1.1932 -0.2699
  775SOL    HW1 2460   4.060   3.230   0.827  0.5501  0.1004  0.9958
  775SOL    HW2 2461   4.193   3.296   0.799  0.2241  0.2862 -0.1780
  776SOL     OW 2462   1.119   3.275   3.503  0.6244  0.1848  0.1906
  776SOL    HW1 2463   1.041   3.220   3.518  0.9371  0.0496  1.4834
  776SOL    HW2 2464   1.191   3.223   3.538  1.1558  0.7384 -0.0741
  777SOL     OW 2465   1.495   1.765   3.441  0.0072 -0.0046 -0.2203
  777SOL    HW1 2466   1.556   1.831   3.474  0.3732 -0.0786 -0.7366
  777SOL    HW2 2467   1.465   1.801   3.357  0.9089 -0.9056 -0.9498
  778SOL     OW 2468   3.738   3.306   3.781 -0.2580  0.6087 -0.4769
  778SOL    HW1 2469   3.649   3.275   3.763  0.1173 -1.9875  1.5523
  778SOL    HW2 2470   3.774   3.325   3.695 -1.8526 -1.0461 -1.5974
  779SOL     OW 2471   3.973   1.475   4.173  0.1932 -0.2155  0.5371
  779SOL    HW1 2472   3.987   1.382   4.191  0.9284 -0.1293  0.4422
  779SOL    HW2 2473   4.022   1.491   4.093 -0.0037  0.2365  0.5058
  780SOL     OW 2474   0.865   3.004   4.395  0.0227  0.3932 -0.2480
  780SOL    HW1 2475   0.834   3.057   4.469  0.9697  2.3058 -1.1505
  780SOL    HW2 2476   0.907   2.929   4.436 -0.3888  0.8782  1.1308
  781SOL     OW 2477   2.769   1.870   1.434  0.3214  0.3934  0.1229
  781SOL    HW1 2478   2.780   1.823   1.517 -0.5028  0.0500  0.0434
  781SOL    HW2 2479   2.683   1.911   1.440  0.0001 -0.1076 -0.7862
  782SOL     OW 2480   1.968   1.214   0.411  0.3594  0.1693  0.0863
  782SOL    HW1 2481   2.004   1.196   0.498 -0.6184  1.4155  0.7937
  782SOL    HW2 2482   2.043   1.219   0.353  1.0701 -0.1616  0.9643
  783SOL     OW 2483   1.085   4.667   4.837 -0.0366  0.8233  0.6696
  783SOL    HW1 2484   1.103   4.657   4.743  0.5691 -3.6262  1.0747
  783SOL    HW2 2485   0.991   4.651   4.845  0.3145 -1.4045  0.9618
  784SOL     OW 2486   3.756   2.923   0.271  0.2647  0.5914 -0.2955
  784SOL    HW1 2487   3.779   3.005   0.315  1.1323  0.4092 -0.3999
  784SOL    HW2 2488   3.682   2.947   0.215 -0.5896  0.9166  0.9250
  785SOL     OW 2489   4.015   2.579   2.971  0.3905 -0.3794  0.4585
  785SOL    HW1 2490   4.056   2.637   2.907  1.2621 -1.2856  0.1652
  785SOL    HW2 2491   4.061   2.598   3.053  0.8618 -0.8307  0.3041
  786SOL     OW 2492   3.068   2.338   4.225  0.0447 -0.3907 -0.1933
  786SOL    HW1 2493   3.056   2.246   4.204  0.9724 -0.6601  0.3898
  786SOL    HW2 2494   3.136   2.368   4.164  0.1774 -0.2517  0.0199
  787SOL     OW 2495   2.308   2.905   4.973  0.7445  0.5506 -0.4620
  787SOL    HW1 2496   2.241   2.837   4.980  0.6410  0.5708 -1.1987
  787SOL    HW2 2497   2.263   2.986   4.997  1.0539  0.2816  1.1711
  788SOL     OW 2498   0.977   0.634   0.970  0.4340  0.1719 -0.2320
  788SOL    HW1 2499   1.060   0.634   0.921 -0.3881  2.0627 -1.7751
  788SOL    HW2 2500   0.915   0.591   0.912  0.1086 -0.3585  0.4973
  789SOL     OW 2501   1.620   2.527   0.941 -0.0260  0.3478 -0.1108
  789SOL    HW1 2502   1.680   2.495   0.874 -0.7371  0.0437 -0.6225
  789SOL    HW2 2503   1.660   2.608   0.972  0.9032 -0.1138 -0.0676
  790SOL     OW 2504   2.628   4.881   0.825  0.6065 -0.1878  0.0895
  790SOL    HW1 2505   2.607   4.871   0.732 -0.5054  0.2324  0.2863
  790SOL    HW2 2506   2.693   4.952   0.826 -0.2034  0.5958 -0.2943
  791SOL     OW 2507   4.021   0.497   0.271  0.9803 -0.2049 -0.4662
  791SOL    HW1 2508   4.069   0.477   0.191  0.2406  1.4491 -1.3644
  791SOL    HW2 2509   3.929   0.490   0.247  0.7380 -1.0063  0.6126
  792SOL     OW 2510   0.572   3.315   4.722  0.3862 -0.0801  0.0794
  792SOL    HW1 2511   0.528   3.400   4.719  1.3258  0.4412  0.4086
  792SOL    HW2 2512   0.556   3.276   4.636 -2.3220 -0.7830  0.8195
  793SOL     OW 2513   4.877   3.721   3.662  0.3149  0.0006  0.2352
  793SOL    HW1 2514   4.840   3.697   3.577  1.4865  2.8594 -1.2348
  793SOL    HW2 2515   4.971   3.704   3.654  0.9900  3.2397 -0.4055
  794SOL     OW 2516   2.310   2.624   4.004  0.6031 -0.8814  0.1594
  794SOL    HW1 2517   2.342   2.647   3.917  4.4910  0.5916  1.7249
  794SOL    HW2 2518   2.285   2.532   3.998  1.4514 -1.0171 -2.3279
  795SOL     OW 2519   2.696   0.416   0.068 -0.5377  0.1127  0.0342
  795SOL    HW1 2520   2.645   0.337   0.086  0.2831 -0.5389 -0.3802
  795SOL    HW2 2521   2.781   0.398   0.109 -0.4426  0.9264  0.2126
  796SOL     OW 2522   0.198   1.689   1.447  0.1505 -0.3891  0.0994
  796SOL    HW1 2523   0.233   1.615   1.397 -0.2834 -1.0683  0.7618
  796SOL    HW2 2524   0.164   1.649   1.527 -0.3880  0.4969  0.3289
  797SOL     OW 2525   1.897   0.452   1.940  0.0866 -0.0392  0.0362
  797SOL    HW1 2526   1.913   0.532   1.990 -0.2271 -0.7198  1.2518
  797SOL    HW2 2527   1.806   0.430   1.959  0.2198 -0.7870 -0.1571
  798SOL     OW 2528   4.001   3.136   0.663  0.5681  0.2310 -0.4852
  798SOL    HW1 2529   4.047   3.165   0.584  1.0012  0.1997 -0.2484
  798SOL    HW2 2530   3.951   3.059   0.636  0.0909  0.6811 -0.9134
  799SOL     OW 2531   2.270   1.387   1.217 -0.1261 -0.0573  0.0378
  799SOL    HW1 2532   2.276   1.402   1.122  0.0587  1.8880  0.3254
  799SOL    HW2 2533   2.360   1.393   1.248 -0.4748  2.8777  0.7652
  800SOL     OW 2534   3.180   2.420   4.466 -0.1106  0.2208  0.0114
  800SOL    HW1 2535   3.105   2.395   4.412  0.7620 -0.5461 -0.8909
  800SOL    HW2 2536   3.239   2.463   4.406 -0.1574  1.5690  0.8899
  801SOL     OW 2537   1.568   3.130   2.397 -0.0589  0.2860  0.6167
  801SOL    HW1 2538   1.498   3.071   2.368  2.2203 -1.4509 -1.7402
  801SOL    HW2 2539   1.584   3.104   2.488 -1.6880  0.0031  0.8684
  802SOL     OW 2540   2.954   1.506   2.086 -0.1671  0.2298  0.0771
  802SOL    HW1 2541   3.015   1.551   2.144  0.3697  1.2750 -1.2647
  802SOL    HW2 2542   2.959   1.553   2.003 -1.9385 -0.3722 -0.4298
  803SOL     OW 2543   2.404   0.238   1.806 -0.0829 -0.5607 -0.1425
  803SOL    HW1 2544   2.498   0.251   1.818 -0.2264  0.3523  0.0778
  803SOL    HW2 2545   2.371   0.325   1.783 -0.8532 -0.9019 -0.3467
  804SOL     OW 2546   2.561   4.647   4.844 -0.0585  0.7157  0.6750
  804SOL    HW1 2547   2.498   4.654   4.774  0.2676 -1.3536  0.0976
  804SOL    HW2 2548   2.621   4.578   4.816  1.0236  0.9350  2.2701
  805SOL     OW 2549   0.243   0.136   1.196  0.1289  0.1465  0.1992
  805SOL    HW1 2550   0.295   0.216   1.206 -0.9405  0.7747  0.9903
  805SOL    HW2 2551   0.307   0.068   1.173  1.0375  1.2477 -0.6479
  806SOL     OW 2552   1.317   4.045   1.223 -0.3672  0.1577  0.9771
  806SOL    HW1 2553   1.395   3.999   1.191 -0.1404  0.3869  1.1858
  806SOL    HW2 2554   1.245   4.010   1.172 -0.1405 -0.1427  0.8601
  807SOL     OW 2555   0.756   1.163   3.216 -0.6013  0.2032  0.0212
  807SOL    HW1 2556   0.840   1.199   3.245 -0.1302 -2.7375  2.8924
  807SOL    HW2 2557   0.695   1.236   3.223  1.3652  2.0024 -0.5476
  808SOL     OW 2558   1.530   4.145   4.071  0.0558  0.5882  0.8911
  808SOL    HW1 2559   1.572   4.189   3.997 -0.1577  0.6288  0.7943
  808SOL    HW2 2560   1.567   4.056   4.070 -1.2798  0.0130 -0.3680
  809SOL     OW 2561   0.463   1.928   1.624  0.3097  0.8000  0.2426
  809SOL    HW1 2562   0.374   1.895   1.634  0.4407  0.5653  0.6225
  809SOL    HW2 2563   0.475   1.936   1.529 -0.7561  2.5720  0.1980
  810SOL     OW 2564   0.127   1.432   3.070 -0.3830 -0.3999  0.0373
  810SOL    HW1 2565   0.061   1.477   3.017  0.6274  0.9481 -0.1598
  810SOL    HW2 2566   0.084   1.416   3.154 -0.9060  0.6457 -0.0120
  811SOL     OW 2567   1.032   0.529   2.618 -0.3241  0.5592  0.4706
  811SOL    HW1 2568   1.075   0.574   2.690  1.1607  1.4217 -0.9050
  811SOL    HW2 2569   1.075   0.444   2.613  0.4312  0.9698 -0.1564
  812SOL     OW 2570   3.603   3.342   1.945  0.3272 -0.1301 -0.0155
  812SOL    HW1 2571   3.525   3.376   1.990 -2.5216  0.2383 -4.5721
  812SOL    HW2 2572   3.602   3.248   1.964 -1.7023 -0.2472 -0.4580
  813SOL     OW 2573   0.310   2.880   4.058  0.9788  0.5097  0.0366
  813SOL    HW1 2574   0.264   2.902   3.977  0.1017  0.8871  0.6160
  813SOL    HW2 2575   0.334   2.965   4.096  0.2421  0.3969  0.7958
  814SOL     OW 2576   1.606   3.471   0.743 -0.3357 -0.0396  0.3144
  814SOL    HW1 2577   1.624   3.388   0.699  2.7152  0.5063  0.3122
  814SOL    HW2 2578   1.564   3.525   0.676  0.2864 -0.6548 -0.5990
  815SOL     OW 2579   3.643   3.347   1.138  0.1463 -0.3058 -0.3431
  815SOL    HW1 2580   3.578   3.409   1.105  1.3757  0.7896 -0.8240
  815SOL    HW2 2581   3.727   3.393   1.128  1.2579 -2.4744 -1.7767
  816SOL     OW 2582   4.790   4.154   2.009  0.5580 -0.0674  0.3123
  816SOL    HW1 2583   4.856   4.134   1.943 -1.0054 -2.3032 -0.7234
  816SOL    HW2 2584   4.776   4.071   2.054 -1.7240  0.2264  0.2653
  817SOL     OW 2585   4.681   3.054   3.612 -0.3290 -0.3566 -0.5257
  817SOL    HW1 2586   4.771   3.026   3.600 -0.4094 -0.3315 -1.2453
  817SOL    HW2 2587   4.642   2.987   3.668  0.3202  0.0215  0.4074
  818SOL     OW 2588   3.740   3.926   1.274 -0.2034 -0.0848  0.3666
  818SOL    HW1 2589   3.740   4.020   1.260 -1.3165 -0.0128  0.6955
  818SOL    HW2 2590   3.778   3.914   1.361  1.1919 -0.0590 -0.2254
  819SOL     OW 2591   1.371   0.965   0.600 -0.1527 -0.1571  0.3350
  819SOL    HW1 2592   1.357   1.032   0.667 -1.3619 -0.3998  0.3421
  819SOL    HW2 2593   1.407   0.891   0.649  2.0411  0.7358  0.1955
  820SOL     OW 2594   3.405   2.760   4.196  0.1735  0.2416  0.1975
  820SOL    HW1 2595   3.477   2.787   4.140  1.8295 -1.6393  1.2882
  820SOL    HW2 2596   3.385   2.837   4.248  1.5700  0.7411  0.0353
  821SOL     OW 2597   3.324   2.476   1.313  0.0771 -0.2374 -0.0203
  821SOL    HW1 2598   3.290   2.423   1.385 -2.0241  0.8053 -0.1532
  821SOL    HW2 2599   3.385   2.537   1.355  0.1378 -0.7165  0.6059
  822SOL     OW 2600   0.238   0.505   4.786 -0.2300  0.1043  0.0179
  822SOL    HW1 2601   0.237   0.448   4.862  0.1699 -0.9247 -0.7210
  822SOL    HW2 2602   0.233   0.445   4.711 -0.8589  1.0894 -0.7667
  823SOL     OW 2603   2.885   2.619   1.095  0.4026 -0.2346 -0.0728
  823SOL    HW1 2604   2.972   2.628   1.134  0.8843  1.4000 -1.4254
  823SOL    HW2 2605   2.824   2.633   1.167  1.2695  1.3929  0.3726
  824SOL     OW 2606   2.186   4.542   0.804 -0.1325  0.4682  0.7491
  824SOL    HW1 2607   2.276   4.575   0.811  0.5934 -1.6240  2.1067
  824SOL    HW2 2608   2.185   4.492   0.723 -0.0710  0.5341  0.7078
  825SOL     OW 2609   4.308   1.912   3.230  0.0388 -0.4588 -0.1644
  825SOL    HW1 2610   4.305   2.008   3.223 -1.4514 -0.4904 -0.3747
  825SOL    HW2 2611   4.385   1.886   3.180  1.5385  0.7368  1.4142
  826SOL     OW 2612   2.588   3.823   3.462 -0.8183 -0.6400 -0.5661
  826SOL    HW1 2613   2.674   3.788   3.487  0.9733  2.1055 -2.2027
  826SOL    HW2 2614   2.577   3.900   3.519 -2.5262 -1.2984  0.0284
  827SOL     OW 2615   4.678   2.750   1.731  0.4851  0.0222  0.0025
  827SOL    HW1 2616   4.735   2.729   1.805  0.5125  0.9909  0.2738
  827SOL    HW2 2617   4.738   2.778   1.662  0.3858  0.2807  0.0209
  828SOL     OW 2618   2.275   1.959   0.122  0.4342  0.4273 -0.4093
  828SOL    HW1 2619   2.361   1.982   0.085  1.5325 -2.3215  0.1184
  828SOL    HW2 2620   2.281   1.986   0.213  2.0580 -2.3471  0.4490
  829SOL     OW 2621   1.918   3.956   1.566  0.1748  0.7670 -0.4591
  829SOL    HW1 2622   1.941   4.010   1.489  0.4303  1.3350  0.0071
  829SOL    HW2 2623   1.827   3.978   1.583  0.2492  0.9835 -0.3311
  830SOL     OW 2624   2.759   3.736   2.589  0.0224 -0.2810  0.4158
  830SOL    HW1 2625   2.848   3.707   2.568 -0.1690 -1.1107  0.7020
  830SOL    HW2 2626   2.726   3.670   2.650 -1.3754 -0.9095 -0.9536
  831SOL     OW 2627   2.342   3.513   1.032  0.2801  0.0090 -0.5588
  831SOL    HW1 2628   2.412   3.505   0.967 -0.7939 -1.8421 -1.5993
  831SOL    HW2 2629   2.363   3.448   1.099  0.3605  0.5348 -0.0702
  832SOL     OW 2630   1.275   1.274   0.626  0.5587  0.2931  0.4164
  832SOL    HW1 2631   1.360   1.318   0.618  1.3108 -1.0346  0.6499
  832SOL    HW2 2632   1.290   1.207   0.693 -0.9744  0.6892  1.1929
  833SOL     OW 2633   1.340   4.258   1.399 -0.6541  0.4025  0.2356
  833SOL    HW1 2634   1.322   4.191   1.333 -0.8737  0.7588 -0.0695
  833SOL    HW2 2635   1.337   4.211   1.482 -2.6528  0.3517  0.1862
  834SOL     OW 2636   3.653   0.088   0.433  0.4261 -0.0671 -0.3019
  834SOL    HW1 2637   3.698   0.052   0.356  1.9087  2.4509 -0.7461
  834SOL    HW2 2638   3.713   0.156   0.466 -0.8299 -0.0501  2.2171
  835SOL     OW 2639   3.508   4.292   3.238 -0.1822  0.4085  0.0780
  835SOL    HW1 2640   3.585   4.272   3.184 -0.9004  0.8348 -1.1532
  835SOL    HW2 2641   3.493   4.212   3.288 -1.7278 -1.5733 -3.1888
  836SOL     OW 2642   4.415   4.932   3.340  0.4747  0.1452 -0.4508
  836SOL    HW1 2643   4.395   4.937   3.433 -1.7438  0.6095 -0.8908
  836SOL    HW2 2644   4.480   4.862   3.333 -1.3375 -1.8684  1.2044
  837SOL     OW 2645   3.227   0.505   2.446  0.4270  0.3047  0.0742
  837SOL    HW1 2646   3.161   0.566   2.415  0.4243 -0.8403 -2.4023
  837SOL    HW2 2647   3.310   0.546   2.422  0.5819  0.9090  1.5623
  838SOL     OW 2648   1.816   2.975   0.950  0.3439 -0.1923 -1.0421
  838SOL    HW1 2649   1.745   3.013   0.898  1.3381  2.3917 -0.6789
  838SOL    HW2 2650   1.782   2.971   1.039  0.7300  1.4988 -0.7774
  839SOL     OW 2651   0.108   4.729   3.652  0.6699  0.4756  0.5503
  839SOL    HW1 2652   0.150   4.802   3.607  0.2157 -0.3369 -1.2560
  839SOL    HW2 2653   0.028   4.767   3.688  0.8362  1.0512  0.3249
  840SOL     OW 2654   1.072   1.365   0.039 -0.2027  0.0564 -0.5950
  840SOL    HW1 2655   1.119   1.446   0.059 -0.6520  0.3096 -0.5484
  840SOL    HW2 2656   1.069   1.317   0.122 -1.7679  0.9518 -0.0889
  841SOL     OW 2657   0.772   2.026   1.152  0.4847  0.1139 -0.6153
  841SOL    HW1 2658   0.704   2.052   1.090 -0.5413 -0.8562  0.0613
  841SOL    HW2 2659   0.725   1.980   1.221  1.7316  0.2702  0.3691
  842SOL     OW 2660   4.881   0.266   3.046  0.1224  0.1983  0.5922
  842SOL    HW1 2661   4.924   0.214   3.115 -0.4566  0.3648  1.0849
  842SOL    HW2 2662   4.857   0.202   2.979  1.0962  0.0976  0.3289
  843SOL     OW 2663   3.280   2.729   1.596  0.1689  0.1324 -0.6387
  843SOL    HW1 2664   3.195   2.693   1.568 -0.4734  0.8502  0.3146
  843SOL    HW2 2665   3.340   2.654   1.590 -0.4625 -0.3342 -1.5480
  844SOL     OW 2666   4.136   3.347   2.362 -0.8117  0.5471 -0.1440
  844SOL    HW1 2667   4.221   3.390   2.359 -1.7178  2.4398  0.1546
  844SOL    HW2 2668   4.147   3.276   2.426  0.4703  0.8904  0.0356
  845SOL     OW 2669   0.205   4.955   2.633  0.0181 -0.1602 -0.3006
  845SOL    HW1 2670   0.184   4.912   2.715 -0.2827  0.1469 -0.2141
  845SOL    HW2 2671   0.277   4.903   2.596  0.6770  0.1361  0.5171
  846SOL     OW 2672   1.111   4.738   3.684 -0.3245 -0.9535 -0.9208
  846SOL    HW1 2673   1.105   4.647   3.656  1.3309 -2.3290  2.6255
  846SOL    HW2 2674   1.204   4.760   3.675 -0.0097 -0.9390  1.5385
  847SOL     OW 2675   2.091   3.125   4.822 -0.6497 -0.0724 -0.2230
  847SOL    HW1 2676   2.181   3.093   4.822 -0.8629 -0.7136  0.4035
  847SOL    HW2 2677   2.050   3.081   4.897 -0.3615  3.4786  2.2333
  848SOL     OW 2678   1.113   0.110   3.645 -0.0227  0.2800  0.3450
  848SOL    HW1 2679   1.178   0.043   3.668 -0.1062  0.8510  2.4699
  848SOL    HW2 2680   1.147   0.191   3.684 -0.9988  1.0307 -0.3028
  849SOL     OW 2681   2.753   4.441   4.850  0.2587 -0.2107  0.1303
  849SOL    HW1 2682   2.720   4.446   4.939  0.6885  0.7709  0.2407
  849SOL    HW2 2683   2.815   4.368   4.851 -1.0385 -1.3671  0.1833
  850SOL     OW 2684   0.523   1.641   2.849 -0.2997  0.2439  0.0112
  850SOL    HW1 2685   0.533   1.711   2.784 -0.8776  1.2081  0.9434
  850SOL    HW2 2686   0.547   1.561   2.801 -1.5506  0.8112 -1.6549
  851SOL     OW 2687   1.673   2.154   4.224  0.3560  0.0155  0.2904
  851SOL    HW1 2688   1.712   2.141   4.138 -2.0296  1.9725 -1.2234
  851SOL    HW2 2689   1.643   2.067   4.251  1.1246 -0.6202 -0.8353
  852SOL     OW 2690   2.957   3.862   4.880  0.7136 -0.0086 -0.3394
  852SOL    HW1 2691   2.988   3.951   4.866  1.1448 -0.1762 -0.4576
  852SOL    HW2 2692   2.906   3.842   4.802  0.9496 -0.0091 -0.4939
  853SOL     OW 2693   4.401   3.828   1.793 -0.7329 -1.2874  0.1583
  853SOL    HW1 2694   4.454   3.844   1.871  0.6493 -0.1168 -0.9730
  853SOL    HW2 2695   4.405   3.733   1.780  0.8498 -1.2480  0.2602
  854SOL     OW 2696   2.336   0.459   4.617  0.3861 -0.1267  1.2452
  854SOL    HW1 2697   2.256   0.451   4.669  0.4060  0.2798  1.3422
  854SOL    HW2 2698   2.386   0.380   4.637 -0.1393 -0.5391  0.9312
  855SOL     OW 2699   0.618   2.011   3.871 -0.2344 -0.3708 -0.0648
  855SOL    HW1 2700   0.529   2.036   3.847  0.4101  0.7184 -1.4426
  855SOL    HW2 2701   0.668   2.092   3.869  1.3052 -1.2787 -1.7751
  856SOL     OW 2702   2.134   1.002   3.250  0.4617 -0.2007 -0.5371
  856SOL    HW1 2703   2.060   1.044   3.207  0.1639  0.9012  0.9444
  856SOL    HW2 2704   2.209   1.060   3.233  1.0846 -1.4062 -2.1908
  857SOL     OW 2705   1.677   4.556   0.376  0.0078  0.0290 -0.0026
  857SOL    HW1 2706   1.707   4.565   0.286  4.5818 -3.1722  0.8065
  857SOL    HW2 2707   1.721   4.626   0.423  0.2289 -0.1990  0.1366
  858SOL     OW 2708   0.311   0.429   3.727  0.0828  0.4043  0.0559
  858SOL    HW1 2709   0.348   0.514   3.752 -1.2624  0.7651  0.9547
  858SOL    HW2 2710   0.222   0.449   3.698  0.9142 -0.2764 -3.2763
  859SOL     OW 2711   4.995   1.409   3.308 -0.0606  0.5706 -0.2863
  859SOL    HW1 2712   4.905   1.389   3.282 -0.0004  0.6825 -0.5812
  859SOL    HW2 2713   4.990   1.496   3.347 -0.6191 -0.6276  2.5219
  860SOL     OW 2714   3.790   1.738   3.012  0.9718  0.1518  0.1445
  860SOL    HW1 2715   3.704   1.698   3.019  1.8995 -1.6985  1.9003
  860SOL    HW2 2716   3.781   1.823   3.055 -0.0689  0.1939 -0.1299
  861SOL     OW 2717   4.578   3.311   3.709 -0.1055 -0.5184  0.0071
  861SOL    HW1 2718   4.646   3.371   3.740 -0.1988 -0.5643  0.2987
  861SOL    HW2 2719   4.626   3.238   3.670  0.0177 -0.7398  0.5678
  862SOL     OW 2720   3.680   0.141   3.802  0.4373  0.1983 -0.3307
  862SOL    HW1 2721   3.713   0.095   3.880 -1.0230  0.8768  0.7366
  862SOL    HW2 2722   3.613   0.082   3.766  0.5219  0.2562 -0.5798
  863SOL     OW 2723   3.512   2.234   3.595 -0.2827 -0.1177  0.7961
  863SOL    HW1 2724   3.542   2.284   3.519 -1.2127  0.4711  0.7927
  863SOL    HW2 2725   3.551   2.280   3.670 -2.2786  1.5733  0.8981
  864SOL     OW 2726   1.318   3.571   3.294  0.1037 -0.7228 -0.3310
  864SOL    HW1 2727   1.390   3.534   3.346  1.2492 -0.8517 -1.9191
  864SOL    HW2 2728   1.243   3.517   3.315  0.1767 -0.0461  2.0612
  865SOL     OW 2729   0.426   4.853   3.028 -0.1514  0.0753  0.1956
  865SOL    HW1 2730   0.505   4.838   3.080  0.0492  0.3895 -0.0135
  865SOL    HW2 2731   0.392   4.937   3.058  0.2016  0.4619 -0.4683
  866SOL     OW 2732   0.396   2.851   3.138  0.4266  0.2577  0.4808
  866SOL    HW1 2733   0.445   2.804   3.070 -0.5765 -1.8248  1.1138
  866SOL    HW2 2734   0.442   2.830   3.219  0.4667  1.1240  0.6969
  867SOL     OW 2735   0.329   1.541   1.735 -0.2736  0.8094  0.4729
  867SOL    HW1 2736   0.238   1.546   1.707  0.1631  0.6367 -1.0537
  867SOL    HW2 2737   0.327   1.489   1.815 -1.7645  2.6976  1.7520
  868SOL     OW 2738   3.363   2.765   0.149 -0.0165 -0.5394 -0.1197
  868SOL    HW1 2739   3.430   2.737   0.212 -0.5369 -2.3158 -0.2972
  868SOL    HW2 2740   3.283   2.724   0.179 -0.6781  0.1562 -0.8908
  869SOL     OW 2741   2.329   4.008   1.071  0.2381 -0.1032 -0.2846
  869SOL    HW1 2742   2.372   4.056   1.000  1.3167  0.6591  0.8426
  869SOL    HW2 2743   2.387   3.934   1.089 -1.0646 -1.4910 -1.5373
  870SOL     OW 2744   1.149   0.203   2.086  0.0269 -0.2143 -0.0756
  870SOL    HW1 2745   1.124   0.122   2.042  1.1962 -0.0853 -1.0428
  870SOL    HW2 2746   1.113   0.273   2.032  1.9262 -0.0412 -1.2211
  871SOL     OW 2747   4.976   1.752   3.409 -0.5188 -0.0597 -0.1619
  871SOL    HW1 2748   5.027   1.746   3.328  2.5221 -2.5016  1.7256
  871SOL    HW2 2749   4.888   1.724   3.384  0.7836 -2.7176 -2.3545
  872SOL     OW 2750   4.785   1.882   2.357 -0.3140 -0.2703 -0.3184
  872SOL    HW1 2751   4.878   1.861   2.359 -0.2418 -0.0170  2.3143
  872SOL    HW2 2752   4.781   1.977   2.348 -0.3740 -0.3690 -1.4731
  873SOL     OW 2753   3.919   4.723   4.989  0.1343 -0.2150  0.6208
  873SOL    HW1 2754   3.995   4.746   5.042  0.8214  1.3855 -0.9303
  873SOL    HW2 2755   3.954   4.663   4.923  0.1326  0.6643 -0.2040
  874SOL     OW 2756   1.118   1.493   1.785 -0.2394 -0.8255 -1.1456
  874SOL    HW1 2757   1.147   1.431   1.852 -0.4831 -1.4814 -1.6405
  874SOL    HW2 2758   1.199   1.533   1.753 -0.0438 -1.1972 -1.1168
  875SOL     OW 2759   4.898   4.302   4.726 -0.2445 -0.0195 -0.6379
  875SOL    HW1 2760   4.993   4.311   4.730 -0.3579  1.2207 -0.5488
  875SOL    HW2 2761   4.870   4.360   4.655 -1.2678  2.6093  1.7369
  876SOL     OW 2762   0.861   1.230   4.700  0.4173  0.1285 -0.2787
  876SOL    HW1 2763   0.949   1.193   4.697 -0.1308 -1.1555 -1.5558
  876SOL    HW2 2764   0.852   1.261   4.790  2.7131  1.7236 -0.5069
  877SOL     OW 2765   4.573   3.432   2.002  0.4039 -0.5428  0.7267
  877SOL    HW1 2766   4.546   3.342   1.980 -0.8660  0.1555 -0.8043
  877SOL    HW2 2767   4.520   3.455   2.079 -0.5612 -0.5285  0.0732
  878SOL     OW 2768   0.494   4.458   4.219  0.0595 -0.1882  0.1513
  878SOL    HW1 2769   0.466   4.447   4.310  0.4924  0.0086  0.3107
  878SOL    HW2 2770   0.578   4.503   4.225  0.1658 -0.3154 -0.3414
  879SOL     OW 2771   3.734   3.500   1.659  0.1071 -0.1118 -0.1947
  879SOL    HW1 2772   3.666   3.486   1.593 -0.7059 -0.4581  0.6967
  879SOL    HW2 2773   3.699   3.568   1.715  0.7632  0.1278 -0.0713
  880SOL     OW 2774   3.761   2.317   3.812  0.6006  0.2101 -0.4008
  880SOL    HW1 2775   3.841   2.332   3.861 -0.2977  0.4708  1.0445
  880SOL    HW2 2776   3.747   2.398   3.762  0.6514  0.5917  0.2007
  881SOL     OW 2777   4.517   0.554   3.335  0.0536  0.0733 -0.4212
  881SOL    HW1 2778   4.479   0.595   3.413 -2.8159 -0.6104 -1.3304
  881SOL    HW2 2779   4.517   0.623   3.269  0.8986  0.1913 -0.3100
  882SOL     OW 2780   1.400   1.914   0.254  0.0659  0.2467  0.1567
  882SOL    HW1 2781   1.313   1.953   0.242  0.0128 -0.1074 -0.6397
  882SOL    HW2 2782   1.457   1.965   0.197  0.8103  1.8214  2.2020
  883SOL     OW 2783   0.759   4.293   0.281 -0.3025  0.2915 -0.5471
  883SOL    HW1 2784   0.695   4.267   0.348 -1.2184  0.9913 -1.1148
  883SOL    HW2 2785   0.811   4.214   0.265  0.4713  0.3201  1.5492
  884SOL     OW 2786   0.713   3.700   2.527 -0.0546 -0.6264  0.1633
  884SOL    HW1 2787   0.804   3.669   2.522  0.1429  0.0879 -1.1608
  884SOL    HW2 2788   0.684   3.675   2.615  1.6257 -0.3079  0.8542
  885SOL     OW 2789   3.522   1.264   3.266  0.3065  0.4383 -0.5165
  885SOL    HW1 2790   3.510   1.221   3.181  1.6486  1.4400 -1.2588
  885SOL    HW2 2791   3.597   1.322   3.252  3.2956 -2.3116  2.4327
  886SOL     OW 2792   1.951   4.544   1.254  0.0292  0.3360  0.1935
  886SOL    HW1 2793   1.909   4.593   1.183  0.1117 -0.0418 -0.1189
  886SOL    HW2 2794   1.885   4.542   1.323  0.5260  2.0968  0.7715
  887SOL     OW 2795   4.876   4.873   4.533 -0.3786  0.2393 -0.5059
  887SOL    HW1 2796   4.847   4.830   4.453  1.1654 -1.0571 -0.4257
  887SOL    HW2 2797   4.962   4.909   4.510 -0.0201  0.0426  0.4959
  888SOL     OW 2798   0.300   4.291   1.247 -0.2147  0.9259  0.6350
  888SOL    HW1 2799   0.388   4.298   1.284 -0.3425  1.6889  0.7984
  888SOL    HW2 2800   0.246   4.259   1.319  0.5071 -2.9460 -0.3043
  889SOL     OW 2801   3.975   0.980   3.429 -0.5034  0.7681  0.0002
  889SOL    HW1 2802   3.909   0.998   3.363 -2.2496 -1.0091  1.1703
  889SOL    HW2 2803   3.964   0.888   3.452  2.7208  0.2287 -0.0626
  890SOL     OW 2804   2.247   4.921   0.042  0.0060  0.0319  0.0036
  890SOL    HW1 2805   2.336   4.940   0.012 -0.1052 -0.9840 -1.0099
  890SOL    HW2 2806   2.235   4.980   0.116  1.7949 -0.3171  0.6401
  891SOL     OW 2807   0.827   1.965   2.720  0.8681  0.1180  0.1379
  891SOL    HW1 2808   0.837   1.876   2.685  1.3854 -0.4322  1.6086
  891SOL    HW2 2809   0.907   2.011   2.694  2.1471 -0.8515  2.0905
  892SOL     OW 2810   0.215   4.557   1.310 -0.1806  0.2981  0.0634
  892SOL    HW1 2811   0.261   4.485   1.268 -0.8064 -1.1487  1.7147
  892SOL    HW2 2812   0.122   4.533   1.304 -0.4074  0.9930  0.6004
  893SOL     OW 2813   1.491   4.517   4.940  0.5213 -0.6955  0.1947
  893SOL    HW1 2814   1.514   4.609   4.945  0.5331 -0.6646 -0.4051
  893SOL    HW2 2815   1.401   4.513   4.973  0.8397 -0.6091  1.1131
  894SOL     OW 2816   0.924   4.690   2.191 -0.1037  0.0732  0.1176
  894SOL    HW1 2817   0.879   4.774   2.202 -0.4984 -0.1533  0.2396
  894SOL    HW2 2818   0.981   4.683   2.267  1.1078  0.9576 -0.6824
  895SOL     OW 2819   2.616   0.747   0.530  0.6543 -0.0555  0.2020
  895SOL    HW1 2820   2.523   0.762   0.544  0.7477  0.8270 -0.0585
  895SOL    HW2 2821   2.625   0.738   0.435  1.2487  3.2814 -0.1925
  896SOL     OW 2822   4.847   0.631   2.265  0.4189  0.0616 -0.1449
  896SOL    HW1 2823   4.928   0.635   2.214 -1.2971 -0.9875 -3.2037
  896SOL    HW2 2824   4.777   0.638   2.200 -2.0480  2.2629  2.4701
  897SOL     OW 2825   4.517   2.095   2.894  0.0707 -0.2221  0.0318
  897SOL    HW1 2826   4.436   2.136   2.863 -0.8588 -1.8432  0.2024
  897SOL    HW2 2827   4.586   2.158   2.872 -1.3236  1.7132  0.8619
  898SOL     OW 2828   1.144   1.040   2.195  0.4505  0.7627  0.1651
  898SOL    HW1 2829   1.205   0.990   2.250  0.9360 -0.4021 -1.3572
  898SOL    HW2 2830   1.185   1.040   2.109 -2.8730 -2.3395 -1.6184
  899SOL     OW 2831   1.899   0.356   3.559 -0.0507  0.2356 -0.6371
  899SOL    HW1 2832   1.927   0.447   3.570 -0.8123  0.5500 -1.1874
  899SOL    HW2 2833   1.830   0.345   3.625  1.4608 -0.6005  0.8718
  900SOL     OW 2834   1.426   2.404   4.811  0.5988 -0.1048 -0.2410
  900SOL    HW1 2835   1.450   2.339   4.746  0.4108  1.8986 -2.4260
  900SOL    HW2 2836   1.358   2.457   4.769 -0.0744  0.8279  1.8646
  901SOL     OW 2837   3.210   3.886   1.285  0.8364  0.1720 -0.3993
  901SOL    HW1 2838   3.214   3.965   1.231  2.9670 -0.1529 -0.8153
  901SOL    HW2 2839   3.156   3.911   1.360  0.0874  1.4826 -1.3302
  902SOL     OW 2840   3.053   0.859   2.628 -0.0459  0.1665  0.1825
  902SOL    HW1 2841   3.070   0.814   2.546 -1.6294  0.4521 -0.3476
  902SOL    HW2 2842   3.021   0.791   2.687  1.2076 -0.0607  0.6211
  903SOL     OW 2843   1.215   1.781   0.616  0.0510  0.1181 -0.0234
  903SOL    HW1 2844   1.280   1.852   0.623 -2.1094  2.0670  1.8009
  903SOL    HW2 2845   1.262   1.711   0.571  2.9941  1.8927 -0.0132
  904SOL     OW 2846   1.433   4.491   0.451  0.0627  0.0859 -0.4965
  904SOL    HW1 2847   1.439   4.396   0.446 -0.1320  0.0742 -0.5179
  904SOL    HW2 2848   1.516   4.523   0.414  0.9267 -0.1107  1.1477
  905SOL     OW 2849   1.023   2.151   2.691  0.2762 -0.1871  0.3211
  905SOL    HW1 2850   1.069   2.214   2.746  1.7548  1.9466 -2.9755
  905SOL    HW2 2851   1.092   2.098   2.652 -0.1311  1.1109 -2.4501
  906SOL     OW 2852   1.595   3.598   3.678  0.1907  0.2370  0.0100
  906SOL    HW1 2853   1.573   3.510   3.647  2.4026 -0.3193 -0.1037
  906SOL    HW2 2854   1.654   3.583   3.752 -0.7065  1.6334  1.0666
  907SOL     OW 2855   3.191   4.272   4.439 -0.3667  0.5094 -0.9957
  907SOL    HW1 2856   3.140   4.342   4.479 -0.1240 -0.0006  0.2476
  907SOL    HW2 2857   3.257   4.316   4.386 -1.2361  1.1874 -1.5402
  908SOL     OW 2858   4.198   2.645   3.249  0.6117 -0.2394  0.2509
  908SOL    HW1 2859   4.265   2.677   3.189 -0.0733  1.1198  0.1793
  908SOL    HW2 2860   4.146   2.722   3.271 -1.3469 -1.3551 -0.1977
  909SOL     OW 2861   1.003   4.006   0.166  0.1019 -0.0410 -0.3015
  909SOL    HW1 2862   1.023   4.075   0.103 -2.1272 -0.5059 -1.6349
  909SOL    HW2 2863   1.074   3.942   0.155  0.3837  0.4493 -1.5056
  910SOL     OW 2864   1.151   3.937   1.721 -0.5517 -0.3242  0.2740
  910SOL    HW1 2865   1.172   3.994   1.646  0.5726  0.6324  1.2847
  910SOL    HW2 2866   1.101   3.994   1.780  1.7084  0.0920  1.9056
  911SOL     OW 2867   4.711   0.303   4.285  0.7527  0.0409 -0.0707
  911SOL    HW1 2868   4.720   0.294   4.190  0.6268 -0.4173 -0.0396
  911SOL    HW2 2869   4.719   0.398   4.300 -1.0134  0.3429 -0.7265
  912SOL     OW 2870   3.241   3.708   3.953  0.1717  0.5795 -0.0673
  912SOL    HW1 2871   3.271   3.621   3.980  2.2664  0.5970 -2.0234
  912SOL    HW2 2872   3.198   3.744   4.031  0.3690 -1.6993  1.1766
  913SOL     OW 2873   4.891   2.183   2.385  0.1968 -0.1464 -0.4510
  913SOL    HW1 2874   4.852   2.270   2.383 -1.6028 -0.8914 -3.3422
  913SOL    HW2 2875   4.959   2.185   2.318 -0.5130 -1.1612 -1.2520
  914SOL     OW 2876   4.295   0.313   0.950 -0.0730  0.6509  0.7368
  914SOL    HW1 2877   4.212   0.285   0.988 -0.3396  0.8709  0.3194
  914SOL    HW2 2878   4.296   0.275   0.862 -0.2355  1.5677  0.3269
  915SOL     OW 2879   2.106   2.839   1.781  0.1557 -0.5702 -0.1055
  915SOL    HW1 2880   2.138   2.762   1.829  0.6801 -0.3887 -0.1609
  915SOL    HW2 2881   2.181   2.898   1.778 -0.4765  0.2929  0.6480
  916SOL     OW 2882   4.121   3.176   2.572 -0.1558  0.1598  0.1531
  916SOL    HW1 2883   4.152   3.213   2.655  0.6040 -1.1115  0.4617
  916SOL    HW2 2884   4.040   3.130   2.596 -0.5875  0.7970 -0.0520
  917SOL     OW 2885   1.541   4.230   0.214  0.6597  0.5171 -0.2692
  917SOL    HW1 2886   1.565   4.241   0.122 -0.2171 -0.3222 -0.6212
  917SOL    HW2 2887   1.619   4.194   0.255  1.1951  1.2894 -0.5923
  918SOL     OW 2888   0.615   3.237   3.490 -0.0538  0.0293 -0.4288
  918SOL    HW1 2889   0.701   3.201   3.467 -0.5761  0.5013 -3.6121
  918SOL    HW2 2890   0.632   3.328   3.513  0.4370 -0.2110  0.1661
  919SOL     OW 2891   3.683   0.874   2.988 -0.3437 -0.1810 -0.3149
  919SOL    HW1 2892   3.685   0.778   2.991  0.0084 -0.1685  0.0928
  919SOL    HW2 2893   3.680   0.900   3.081 -1.4613  0.1911 -0.4354
  920SOL     OW 2894   2.273   2.558   4.816  0.0987 -0.0505 -0.5619
  920SOL    HW1 2895   2.243   2.575   4.727 -2.0793 -1.4706 -0.1837
  920SOL    HW2 2896   2.231   2.626   4.869  0.0919 -0.1633 -0.4216
  921SOL     OW 2897   2.160   3.295   4.594 -0.4962  0.4303 -0.0226
  921SOL    HW1 2898   2.155   3.274   4.687 -0.1713  0.9200  0.1043
  921SOL    HW2 2899   2.085   3.249   4.556  0.3696 -1.2572  0.1979
  922SOL     OW 2900   0.235   3.433   4.102 -0.5480 -0.4941 -0.3570
  922SOL    HW1 2901   0.171   3.456   4.034  0.5721  3.5654 -0.3256
  922SOL    HW2 2902   0.184   3.433   4.183 -0.6675  3.3107 -0.2467
  923SOL     OW 2903   2.325   2.100   1.026  0.5117 -0.4664 -0.0375
  923SOL    HW1 2904   2.259   2.053   0.975  0.2484  0.4898 -0.6028
  923SOL    HW2 2905   2.356   2.036   1.090 -2.1199 -0.4940  1.3485
  924SOL     OW 2906   2.163   1.722   4.416  0.7979 -0.2544 -0.8784
  924SOL    HW1 2907   2.082   1.753   4.376 -0.4265 -0.6882  1.1256
  924SOL    HW2 2908   2.231   1.743   4.352 -1.0840 -1.5435 -3.4885
  925SOL     OW 2909   0.056   0.670   2.550 -0.0029  0.1236 -0.1670
  925SOL    HW1 2910  -0.022   0.621   2.525 -0.5144  0.8921 -0.1100
  925SOL    HW2 2911   0.029   0.720   2.627  0.4111  0.7407 -0.4172
  926SOL     OW 2912   4.476   0.572   1.648  0.0630  0.4528 -0.6258
  926SOL    HW1 2913   4.499   0.480   1.641  3.6306  1.2561 -1.3803
  926SOL    HW2 2914   4.425   0.591   1.569 -2.8379 -1.2478  0.6735
  927SOL     OW 2915   3.443   4.103   4.771  0.6891  0.2964  0.2869
  927SOL    HW1 2916   3.375   4.163   4.802  0.8354  0.6368 -0.0397
  927SOL    HW2 2917   3.414   4.078   4.684  1.2172  0.8193 -0.0473
  928SOL     OW 2918   1.540   0.643   1.379  0.5487 -0.1140  0.5307
  928SOL    HW1 2919   1.468   0.706   1.370  0.9671  0.0713 -2.7412
  928SOL    HW2 2920   1.498   0.564   1.413 -0.3028  1.2574  2.9503
  929SOL     OW 2921   4.069   3.681   3.521 -0.3022  1.2401  0.0698
  929SOL    HW1 2922   4.046   3.751   3.460 -0.3424  1.4217  0.2963
  929SOL    HW2 2923   4.156   3.703   3.552  1.3166 -0.6643 -2.6127
  930SOL     OW 2924   3.302   4.383   2.409 -0.2831  0.4348  0.0130
  930SOL    HW1 2925   3.245   4.398   2.484  0.5327  2.1593  0.3419
  930SOL    HW2 2926   3.356   4.308   2.433  0.3015  1.2621  1.3832
  931SOL     OW 2927   0.517   4.688   4.940 -0.4617 -0.0691 -0.7633
  931SOL    HW1 2928   0.487   4.638   5.016  1.2906 -4.3827 -2.5468
  931SOL    HW2 2929   0.441   4.693   4.882 -0.3922 -2.0788 -1.0997
  932SOL     OW 2930   1.855   1.380   4.208 -0.6965 -0.7212  0.2330
  932SOL    HW1 2931   1.887   1.341   4.289 -0.0635 -0.7763 -0.0384
  932SOL    HW2 2932   1.776   1.331   4.187 -1.3016 -0.2000  1.2252
  933SOL     OW 2933   1.034   2.777   4.453  0.0527  0.1456 -0.1432
  933SOL    HW1 2934   1.124   2.802   4.429  0.2949 -1.5426 -1.1346
  933SOL    HW2 2935   1.044   2.694   4.499 -0.9472  0.4929  0.7479
  934SOL     OW 2936   2.619   4.708   1.043 -0.1408 -0.0864  0.2379
  934SOL    HW1 2937   2.688   4.664   0.995  0.3445  1.5106 -0.6017
  934SOL    HW2 2938   2.603   4.788   0.994 -1.9130  0.0469  0.9653
  935SOL     OW 2939   1.254   1.465   4.148 -0.2282  0.2925  0.6426
  935SOL    HW1 2940   1.286   1.446   4.059  1.1898  0.3533  1.1076
  935SOL    HW2 2941   1.204   1.546   4.138 -1.0489 -0.3030 -0.2866
  936SOL     OW 2942   1.010   4.906   4.528 -0.4667  0.0910 -0.1227
  936SOL    HW1 2943   1.088   4.958   4.507  1.1188 -0.8626  2.8968
  936SOL    HW2 2944   0.966   4.955   4.597 -2.0501  0.0831 -1.0725
  937SOL     OW 2945   3.933   4.472   1.440 -0.7575  0.0538 -0.3560
  937SOL    HW1 2946   3.989   4.470   1.518 -1.7259  1.6022  0.4311
  937SOL    HW2 2947   3.991   4.450   1.368  0.6213  0.5607  0.5654
  938SOL     OW 2948   2.814   2.910   4.781 -0.0283 -0.0551  0.1174
  938SOL    HW1 2949   2.753   2.927   4.710  0.3968  1.0350 -0.0018
  938SOL    HW2 2950   2.868   2.837   4.750  1.0828  1.3127 -1.2882
  939SOL     OW 2951   3.947   4.390   2.607 -0.1579  0.0921  0.7134
  939SOL    HW1 2952   4.016   4.365   2.668  0.1107 -0.6451  0.1213
  939SOL    HW2 2953   3.948   4.486   2.607  0.3337  0.0890  1.3036
  940SOL     OW 2954   4.520   4.132   4.659  1.2321 -0.1469  0.0854
  940SOL    HW1 2955   4.469   4.192   4.605  0.6609 -1.0406 -0.3868
  940SOL    HW2 2956   4.595   4.109   4.604  0.4803 -1.3175 -0.5010
  941SOL     OW 2957   2.866   3.915   1.744  0.3411 -0.8184 -0.2768
  941SOL    HW1 2958   2.929   3.942   1.811 -0.4198  0.0873  0.0990
  941SOL    HW2 2959   2.829   3.997   1.712 -1.6529 -1.3623  0.5062
  942SOL     OW 2960   2.363   3.181   3.238  0.2236 -0.1931  0.0969
  942SOL    HW1 2961   2.295   3.244   3.259  0.6128 -0.4713  2.4084
  942SOL    HW2 2962   2.441   3.234   3.223  0.4146 -0.0659  1.4642
  943SOL     OW 2963   2.086   1.046   3.926  0.3758 -0.1511 -0.1043
  943SOL    HW1 2964   1.993   1.027   3.913  0.7548 -1.3039 -1.4404
  943SOL    HW2 2965   2.102   1.124   3.874  0.0233  0.4436  0.6705
  944SOL     OW 2966   0.582   3.096   4.052 -0.1123 -0.1588  0.2763
  944SOL    HW1 2967   0.677   3.105   4.056 -0.2027  0.4069  2.4774
  944SOL    HW2 2968   0.563   3.011   4.090 -0.5838  0.8401  2.4066
  945SOL     OW 2969   4.967   4.437   1.252 -0.8044 -0.2151  0.0550
  945SOL    HW1 2970   4.949   4.358   1.201 -0.0085 -0.1756 -0.3009
  945SOL    HW2 2971   4.921   4.423   1.335 -1.5506 -0.5782 -0.4082
  946SOL     OW 2972   0.571   2.754   4.026  0.6143 -0.0671  0.0126
  946SOL    HW1 2973   0.590   2.693   4.097 -0.2174 -0.9956 -0.5443
  946SOL    HW2 2974   0.476   2.748   4.014  0.5304  1.2507 -0.1360
  947SOL     OW 2975   1.048   3.343   2.352 -0.4014  0.3319  0.1810
  947SOL    HW1 2976   0.970   3.293   2.329 -0.2797  0.6744 -1.0625
  947SOL    HW2 2977   1.115   3.315   2.290  0.1866  0.7532  0.6006
  948SOL     OW 2978   0.559   0.149   0.473  0.9566 -1.0374  0.3169
  948SOL    HW1 2979   0.517   0.205   0.407 -1.1508  0.3094  2.6238
  948SOL    HW2 2980   0.552   0.199   0.555  2.5087 -3.0692  1.7973
  949SOL     OW 2981   0.129   0.353   2.264 -0.5332  0.5243 -0.2568
  949SOL    HW1 2982   0.140   0.317   2.352 -4.1732 -0.2076  0.0477
  949SOL    HW2 2983   0.211   0.331   2.219  0.1490 -2.0707  1.9477
  950SOL     OW 2984   0.598   1.944   4.358  0.5027  0.5132 -0.2674
  950SOL    HW1 2985   0.593   2.024   4.411 -0.1831  0.8539 -0.8339
  950SOL    HW2 2986   0.507   1.913   4.352  0.9039 -1.1034  1.1181
  951SOL     OW 2987   0.356   1.660   4.450 -0.3039  0.3528 -0.1461
  951SOL    HW1 2988   0.268   1.636   4.478  0.5302 -1.9641  0.7157
  951SOL    HW2 2989   0.410   1.583   4.470  1.3695  0.4813 -3.4238
  952SOL     OW 2990   0.842   1.525   1.968  0.1840 -0.4419 -0.8266
  952SOL    HW1 2991   0.877   1.438   1.986  1.2151  0.3036  0.9751
  952SOL    HW2 2992   0.819   1.523   1.875  1.5378 -2.1643 -1.1630
  953SOL     OW 2993   1.793   1.045   4.467 -0.0266  0.0576 -0.0788
  953SOL    HW1 2994   1.708   1.066   4.506  1.2735  2.3845  1.7104
  953SOL    HW2 2995   1.784   1.071   4.376 -0.8219  1.6295  0.4158
  954SOL     OW 2996   3.309   0.766   2.721 -0.3493 -0.6773 -0.1402
  954SOL    HW1 2997   3.386   0.822   2.712  0.1435 -0.7078  2.6971
  954SOL    HW2 2998   3.235   0.827   2.719  0.0146 -0.1957  0.3886
  955SOL     OW 2999   4.030   3.575   2.212 -0.2190  0.0100  0.0003
  955SOL    HW1 3000   3.949   3.606   2.253 -0.6207  0.2753 -0.9605
  955SOL    HW2 3001   4.049   3.493   2.256  0.5185  1.2758  2.1745
  956SOL     OW 3002   0.296   4.240   3.782  0.1479 -0.4509  0.0926
  956SOL    HW1 3003   0.332   4.218   3.868  1.6294  0.5439 -0.2415
  956SOL    HW2 3004   0.246   4.320   3.797 -0.3848 -0.7910  0.1840
  957SOL     OW 3005   4.645   4.892   3.720 -0.3035  0.0826  0.4533
  957SOL    HW1 3006   4.555   4.899   3.752  0.4637  2.2645  2.4890
  957SOL    HW2 3007   4.637   4.891   3.625 -2.5258 -1.5575  0.5961
  958SOL     OW 3008   2.349   0.465   2.741  0.0606 -0.0909 -0.0885
  958SOL    HW1 3009   2.260   0.430   2.746 -0.3587  0.8174 -0.8845
  958SOL    HW2 3010   2.386   0.449   2.828 -1.9060  2.1809  1.2699
  959SOL     OW 3011   2.840   3.562   2.854  0.3441  0.0153  0.2786
  959SOL    HW1 3012   2.904   3.631   2.873 -0.1545  1.3318 -2.3568
  959SOL    HW2 3013   2.877   3.514   2.780 -1.2706  0.2869 -0.7647
  960SOL     OW 3014   2.820   3.017   2.647 -0.4785 -0.0878 -0.6339
  960SOL    HW1 3015   2.914   3.018   2.665 -0.5174 -1.5546 -0.1703
  960SOL    HW2 3016   2.780   3.010   2.734 -0.8901 -1.9278 -0.9214
  961SOL     OW 3017   3.418   0.345   1.151 -0.4214 -0.0377 -0.4919
  961SOL    HW1 3018   3.328   0.370   1.172 -0.3850  0.7011 -1.1665
  961SOL    HW2 3019   3.469   0.425   1.165  0.0428 -0.2997 -0.6572
  962SOL     OW 3020   2.306   1.270   2.401 -0.0784  0.4610 -0.2499
  962SOL    HW1 3021   2.392   1.286   2.440 -0.0061  0.7083 -0.5081
  962SOL    HW2 3022   2.249   1.334   2.444 -0.3299 -0.3015  0.5830
  963SOL     OW 3023   1.714   1.648   0.824 -0.3961  0.1112 -0.8090
  963SOL    HW1 3024   1.748   1.561   0.804  0.1431  0.2185 -0.3734
  963SOL    HW2 3025   1.663   1.672   0.746 -1.2085 -0.9118 -0.6072
  964SOL     OW 3026   4.294   1.073   1.075  0.1997  0.4110  0.0415
  964SOL    HW1 3027   4.271   0.981   1.069 -1.4115  0.8307 -0.9774
  964SOL    HW2 3028   4.227   1.118   1.023  1.9429  1.9988 -0.9564
  965SOL     OW 3029   2.042   3.532   3.900 -0.0884 -0.5752  0.0417
  965SOL    HW1 3030   2.052   3.626   3.888 -1.3223 -0.2636  1.2335
  965SOL    HW2 3031   2.129   3.496   3.880  0.6380  0.8887  0.4073
  966SOL     OW 3032   1.759   4.953   3.812  0.2760 -0.3857  0.0796
  966SOL    HW1 3033   1.822   5.014   3.774  0.5230 -1.3236 -1.0589
  966SOL    HW2 3034   1.784   4.949   3.905 -1.1561  2.9358  0.7513
  967SOL     OW 3035   0.250   3.805   4.030  0.2808  0.0784 -0.3646
  967SOL    HW1 3036   0.166   3.759   4.022 -1.2702  2.3289  1.3623
  967SOL    HW2 3037   0.290   3.766   4.108  0.3040 -0.2620 -0.5464
  968SOL     OW 3038   2.719   0.937   2.479 -0.4725  0.6624  0.0887
  968SOL    HW1 3039   2.672   0.974   2.404 -2.3140  0.5707  1.1476
  968SOL    HW2 3040   2.746   0.849   2.449  0.1680  1.1869 -0.9520
  969SOL     OW 3041   1.788   4.664   2.761 -0.4083  0.3490 -0.5301
  969SOL    HW1 3042   1.852   4.619   2.706  0.6642  0.9389  0.2233
  969SOL    HW2 3043   1.811   4.756   2.756 -0.8291  0.5071  0.2201
  970SOL     OW 3044   1.938   0.097   3.678  0.2395  0.1846 -0.1866
  970SOL    HW1 3045   2.018   0.044   3.675  0.3824  0.1192  2.4790
  970SOL    HW2 3046   1.968   0.187   3.671  0.6630  0.1984  1.4903
  971SOL     OW 3047   1.695   3.384   4.001  0.8298 -0.0122 -0.0279
  971SOL    HW1 3048   1.695   3.292   3.975  0.3073 -0.8915  2.7769
  971SOL    HW2 3049   1.607   3.415   3.979  0.5998 -0.5510  0.1146
  972SOL     OW 3050   0.616   0.431   0.548 -0.0938  0.1790  0.1309
  972SOL    HW1 3051   0.584   0.505   0.496 -1.1832 -0.2176  0.2108
  972SOL    HW2 3052   0.569   0.439   0.631  1.4221  0.6466  0.9809
  973SOL     OW 3053   3.219   0.043   0.831 -0.4454 -0.2315  0.0077
  973SOL    HW1 3054   3.309   0.056   0.802 -1.0598 -0.4215 -2.1459
  973SOL    HW2 3055   3.227   0.018   0.924  1.7573 -1.0971 -0.3511
  974SOL     OW 3056   3.390   3.831   0.025 -0.1698 -0.5476 -0.1819
  974SOL    HW1 3057   3.413   3.902   0.085  0.6605 -0.3969 -0.6623
  974SOL    HW2 3058   3.328   3.777   0.075 -0.4266  0.2382  0.3628
  975SOL     OW 3059   2.912   3.203   0.908  0.5719 -0.1049 -0.3892
  975SOL    HW1 3060   2.912   3.115   0.871 -2.3142 -0.2108 -0.3705
  975SOL    HW2 3061   2.919   3.262   0.833  2.6853 -0.2817 -0.3879
  976SOL     OW 3062   2.388   0.750   4.517  0.0391  0.4057  0.5201
  976SOL    HW1 3063   2.310   0.787   4.557 -1.0196  1.0232 -1.9111
  976SOL    HW2 3064   2.380   0.656   4.529 -0.8263  0.5040  0.7258
  977SOL     OW 3065   2.134   4.009   4.829  0.5035 -0.4715  0.3347
  977SOL    HW1 3066   2.155   4.038   4.740  0.7579  0.4682  0.6850
  977SOL    HW2 3067   2.208   4.038   4.882  0.0379 -0.4040  0.9655
  978SOL     OW 3068   1.616   0.401   1.050  0.3223 -0.0533 -0.1837
  978SOL    HW1 3069   1.665   0.411   0.968  1.1079 -1.2503  0.1213
  978SOL    HW2 3070   1.525   0.387   1.022  0.7761 -1.7188 -0.9213
  979SOL     OW 3071   4.498   3.270   4.471 -0.1142 -0.0700  0.0927
  979SOL    HW1 3072   4.517   3.184   4.433  0.0292 -0.8696  1.9050
  979SOL    HW2 3073   4.452   3.251   4.553  2.3903  1.4215  1.9800
  980SOL     OW 3074   0.544   1.168   2.123  0.0402 -0.6914  0.5183
  980SOL    HW1 3075   0.525   1.162   2.029  1.1243 -2.9399  0.3761
  980SOL    HW2 3076   0.638   1.189   2.126 -0.6463  2.8964  1.1784
  981SOL     OW 3077   4.742   0.536   3.543  0.0551  0.1929 -0.5830
  981SOL    HW1 3078   4.822   0.507   3.500 -0.5614 -1.3670 -0.7183
  981SOL    HW2 3079   4.672   0.489   3.499 -0.6518 -1.1268  1.7760
  982SOL     OW 3080   2.894   1.767   1.684 -0.0515  0.1591  0.1065
  982SOL    HW1 3081   2.959   1.799   1.622 -0.3068  0.7919  0.1520
  982SOL    HW2 3082   2.940   1.700   1.734  0.9387  1.3579  0.8869
  983SOL     OW 3083   2.932   0.719   0.020  0.4066  0.0287 -0.1888
  983SOL    HW1 3084   3.006   0.741  -0.036  2.2881 -0.0134  2.0909
  983SOL    HW2 3085   2.955   0.634   0.058 -0.2139  0.5349  1.4419
  984SOL     OW 3086   2.137   2.400   2.920 -0.0805  0.1052  0.5430
  984SOL    HW1 3087   2.197   2.326   2.909  0.9651  1.0567 -0.4809
  984SOL    HW2 3088   2.051   2.361   2.931  0.4091 -1.2532 -0.3111
  985SOL     OW 3089   2.310   3.484   3.854  0.2943 -0.2268 -0.4178
  985SOL    HW1 3090   2.319   3.518   3.943  0.5635 -1.3765  0.0190
  985SOL    HW2 3091   2.362   3.543   3.800  2.1747 -0.9008  0.5564
  986SOL     OW 3092   0.817   2.231   0.234 -0.2779  0.1844 -0.3147
  986SOL    HW1 3093   0.862   2.253   0.152  1.9223 -1.3889  0.3761
  986SOL    HW2 3094   0.815   2.313   0.283  1.4061  0.4317 -0.6088
  987SOL     OW 3095   4.590   3.856   2.352 -0.2714 -0.2767 -0.3857
  987SOL    HW1 3096   4.534   3.791   2.395  0.1390 -0.2333  0.2381
  987SOL    HW2 3097   4.679   3.823   2.366 -0.1254 -0.2276 -1.1638
  988SOL     OW 3098   0.639   2.955   3.735 -0.1065  0.1538 -0.1516
  988SOL    HW1 3099   0.570   2.946   3.800 -0.3148 -0.5859 -0.4625
  988SOL    HW2 3100   0.628   2.879   3.678  1.0054 -0.0080 -0.1672
  989SOL     OW 3101   1.237   0.981   1.713 -0.1912  0.0832  0.2638
  989SOL    HW1 3102   1.288   0.902   1.695 -0.5862 -0.8265  2.6605
  989SOL    HW2 3103   1.303   1.046   1.739 -0.0789 -0.6241  1.8635
  990SOL     OW 3104   3.007   4.679   2.272  0.1004 -0.2960  0.1593
  990SOL    HW1 3105   2.926   4.669   2.222 -0.4113  1.8572  0.4717
  990SOL    HW2 3106   2.989   4.636   2.356 -0.6451  0.0133  0.1603
  991SOL     OW 3107   3.184   4.103   3.289 -0.4138 -0.6474 -0.0653
  991SOL    HW1 3108   3.110   4.072   3.342 -0.6186  1.2417  0.8688
  991SOL    HW2 3109   3.143   4.157   3.221  0.0488 -0.2707 -0.0483
  992SOL     OW 3110   4.374   3.482   3.601 -0.3035 -0.0476 -0.1109
  992SOL    HW1 3111   4.373   3.535   3.680 -1.0092 -0.4648  0.1672
  992SOL    HW2 3112   4.434   3.410   3.621 -0.2323  0.0234 -0.0712
  993SOL     OW 3113   4.993   3.055   4.635  0.6493 -0.3977 -0.2913
  993SOL    HW1 3114   5.003   3.077   4.543 -2.7192 -0.7751 -0.8842
  993SOL    HW2 3115   4.998   2.959   4.638  1.1513 -0.3693  0.0128
  994SOL     OW 3116   0.837   1.935   0.262  0.2929  0.6107  0.2105
  994SOL    HW1 3117   0.865   1.909   0.174  1.2287  0.9101  0.4114
  994SOL    HW2 3118   0.860   2.027   0.269 -1.5912  1.1348  0.0703
  995SOL     OW 3119   2.492   2.401   4.824  0.1346 -0.2318 -0.1234
  995SOL    HW1 3120   2.398   2.418   4.831 -0.3686 -2.1847 -1.3522
  995SOL    HW2 3121   2.507   2.392   4.730  1.5394 -0.1420  0.0789
  996SOL     OW 3122   0.068   3.583   1.414  0.0360  0.2639 -0.3265
  996SOL    HW1 3123   0.063   3.516   1.346  0.5169  1.2634 -1.3738
  996SOL    HW2 3124   0.137   3.552   1.473 -0.1445 -0.4421 -0.4750
  997SOL     OW 3125   0.832   3.134   3.343  0.2375  0.4095  0.1229
  997SOL    HW1 3126   0.919   3.096   3.335  0.2622 -0.0554  2.0517
  997SOL    HW2 3127   0.842   3.225   3.317  1.3048  0.3624  0.3450
  998SOL     OW 3128   4.187   0.546   3.725 -0.3166 -0.2621  0.1493
  998SOL    HW1 3129   4.120   0.614   3.720 -0.4027 -0.3691 -0.1471
  998SOL    HW2 3130   4.138   0.464   3.735 -0.3129 -0.5509 -1.8550
  999SOL     OW 3131   2.082   3.434   2.892  0.0370 -0.2790 -0.0156
  999SOL    HW1 3132   2.038   3.435   2.977 -1.2279  0.8249 -0.6552
  999SOL    HW2 3133   2.171   3.464   2.911 -0.7015  1.6314  0.7181
 1000SOL     OW 3134   3.006   4.955   4.329 -0.0502 -0.1265  0.0984
 1000SOL    HW1 3135   3.086   4.960   4.278  0.6150  2.5499  1.2430
 1000SOL    HW2 3136   2.996   5.042   4.367 -2.2411 -1.0602  1.9050
 1001SOL     OW 3137   4.387   3.384   2.341 -0.1481 -0.4308 -0.5345
 1001SOL    HW1 3138   4.471   3.394   2.387 -0.6405 -0.7798  0.4735
 1001SOL    HW2 3139   4.402   3.423   2.255  0.6313  0.7760  0.1167
 1002SOL     OW 3140   3.293   4.766   2.981  0.2170 -0.2459 -0.4096
 1002SOL    HW1 3141   3.345   4.830   2.933 -1.6608  1.3306 -0.4725
 1002SOL    HW2 3142   3.232   4.818   3.033 -0.3258 -1.9781  0.7935
 1003SOL     OW 3143   2.473   1.801   4.429 -0.1872  0.0454 -0.0027
 1003SOL    HW1 3144   2.455   1.709   4.411 -0.3047 -0.1804  1.1393
 1003SOL    HW2 3145   2.522   1.800   4.512 -0.7900  1.0364  0.3860
 1004SOL     OW 3146   1.553   0.969   4.839  0.1867  0.1321 -0.1514
 1004SOL    HW1 3147   1.631   0.930   4.800  1.5339  1.0710  1.4696
 1004SOL    HW2 3148   1.485   0.958   4.772  1.5436 -1.1963 -1.4006
 1005SOL     OW 3149   0.091   3.621   0.228 -0.4987 -0.1060 -1.0668
 1005SOL    HW1 3150   0.161   3.657   0.174 -1.4667  0.9585 -1.6493
 1005SOL    HW2 3151   0.021   3.601   0.166 -1.3752  0.5046 -0.2996
 1006SOL     OW 3152   2.760   2.017   2.765  0.0506  0.1871 -0.5902
 1006SOL    HW1 3153   2.809   1.996   2.686 -2.1108 -0.4354 -1.8651
 1006SOL    HW2 3154   2.816   2.076   2.814  2.3101 -0.9980 -1.5966
 1007SOL     OW 3155   4.602   2.043   0.455  0.0958 -0.2612  0.0949
 1007SOL    HW1 3156   4.673   2.046   0.519 -0.6717 -0.0676  0.9536
 1007SOL    HW2 3157   4.522   2.040   0.507 -0.5960  0.7560 -0.8383
 1008SOL     OW 3158   1.292   0.843   0.342 -0.5715 -0.0251  0.0218
 1008SOL    HW1 3159   1.332   0.818   0.259  0.9506 -0.4835  0.8362
 1008SOL    HW2 3160   1.355   0.814   0.408 -1.8374  0.1284  1.3516
 1009SOL     OW 3161   1.265   1.975   4.463 -0.1620 -0.2096  0.3105
 1009SOL    HW1 3162   1.206   1.997   4.391  0.7615  3.8971  0.5766
 1009SOL    HW2 3163   1.214   1.991   4.542 -0.0149 -1.0733  0.5951
 1010SOL     OW 3164   1.888   3.506   3.684 -0.1170 -0.1786 -0.5722
 1010SOL    HW1 3165   1.896   3.420   3.644  2.4838 -0.3327  0.0881
 1010SOL    HW2 3166   1.940   3.500   3.765  1.4439  2.3914 -1.2656
 1011SOL     OW 3167   1.870   2.422   3.876 -0.0710  0.6027 -0.2363
 1011SOL    HW1 3168   1.834   2.354   3.818  2.2840 -0.7558 -0.2369
 1011SOL    HW2 3169   1.893   2.493   3.817 -2.1990  1.3217 -0.2878
 1012SOL     OW 3170   0.981   3.436   3.969  0.2283 -0.4463 -0.3762
 1012SOL    HW1 3171   0.973   3.483   3.887  0.8936  0.0754 -0.1526
 1012SOL    HW2 3172   1.043   3.366   3.951  0.2561 -0.4268 -0.3561
 1013SOL     OW 3173   0.135   2.539   4.341 -0.0581 -0.4336 -0.2625
 1013SOL    HW1 3174   0.101   2.461   4.298 -0.2551  0.4067 -1.7013
 1013SOL    HW2 3175   0.061   2.600   4.343  0.2452 -0.0679  0.3309
 1014SOL     OW 3176   2.444   0.663   1.213 -0.0240  0.2360  0.2829
 1014SOL    HW1 3177   2.479   0.643   1.300  0.0838  1.1867  0.4675
 1014SOL    HW2 3178   2.387   0.589   1.193 -2.9131  1.5765  2.7117
 1015SOL     OW 3179   2.734   1.978   1.802  0.1658  0.9998  0.2838
 1015SOL    HW1 3180   2.780   1.896   1.784  0.3732  1.1301  0.2170
 1015SOL    HW2 3181   2.794   2.028   1.857 -0.8311  0.2127  2.2093
 1016SOL     OW 3182   0.118   3.129   1.083  0.0954  0.7275  0.5015
 1016SOL    HW1 3183   0.158   3.091   1.005  0.9805 -0.1620  1.3471
 1016SOL    HW2 3184   0.037   3.079   1.096  1.3292 -1.1065  1.6985
 1017SOL     OW 3185   1.612   3.344   0.352 -0.0467 -0.3690  0.3611
 1017SOL    HW1 3186   1.688   3.341   0.294  0.6615 -1.9404  1.2891
 1017SOL    HW2 3187   1.551   3.280   0.314 -0.3608 -0.0584  0.3375
 1018SOL     OW 3188   1.703   4.867   0.465  0.4909 -0.1795  0.0716
 1018SOL    HW1 3189   1.796   4.885   0.474  0.0583  2.3723  0.0866
 1018SOL    HW2 3190   1.677   4.909   0.383 -0.3941 -2.2297 -0.7835
 1019SOL     OW 3191   2.939   3.585   0.782  0.2830 -0.1961  0.1189
 1019SOL    HW1 3192   2.980   3.544   0.858  0.0071  0.1862  0.4802
 1019SOL    HW2 3193   2.903   3.512   0.732 -0.2021 -0.3966  0.7515
 1020SOL     OW 3194   4.360   3.083   2.977  0.6010 -0.2949 -0.4642
 1020SOL    HW1 3195   4.367   3.154   3.041  0.6503  0.1272 -0.9360
 1020SOL    HW2 3196   4.435   3.097   2.919 -1.0538  1.0569 -2.3647
 1021SOL     OW 3197   0.310   3.214   1.253 -0.1666 -0.1723  0.0095
 1021SOL    HW1 3198   0.386   3.187   1.202 -0.5636 -0.2322 -0.5668
 1021SOL    HW2 3199   0.235   3.195   1.196 -0.6355 -0.4111  0.6870
 1022SOL     OW 3200   2.320   4.371   4.025 -0.0320 -0.1320  0.1239
 1022SOL    HW1 3201   2.319   4.333   4.113  0.2707  0.4804  0.3936
 1022SOL    HW2 3202   2.399   4.334   3.984  0.1227  0.0073  0.2958
 1023SOL     OW 3203   4.397   1.683   4.899  0.4308  0.3717  0.4388
 1023SOL    HW1 3204   4.374   1.681   4.807 -3.0809  0.5213  1.1661
 1023SOL    HW2 3205   4.479   1.733   4.903  0.9505 -0.0772 -2.5770
 1024SOL     OW 3206   2.034   4.204   4.440  0.2017  0.9445 -0.5432
 1024SOL    HW1 3207   2.009   4.283   4.488 -0.1786 -0.3338  1.4960
 1024SOL    HW2 3208   1.980   4.205   4.361 -3.2245  0.4950  1.6044
 1025SOL     OW 3209   3.046   1.892   3.018 -0.3871  0.1620 -0.6727
 1025SOL    HW1 3210   3.055   1.845   2.935  1.8495  2.4989 -1.9103
 1025SOL    HW2 3211   3.102   1.843   3.078  1.1289  0.5782 -1.6687
 1026SOL     OW 3212   0.831   4.856   0.737 -0.3756 -0.5397  0.1742
 1026SOL    HW1 3213   0.801   4.885   0.823 -2.4080 -1.6404 -0.0847
 1026SOL    HW2 3214   0.757   4.874   0.679  1.2325  0.8731 -1.5489
 1027SOL     OW 3215   4.818   1.569   0.185 -0.2803 -0.0745 -0.0130
 1027SOL    HW1 3216   4.746   1.507   0.196 -0.2647 -0.1485 -0.3028
 1027SOL    HW2 3217   4.778   1.655   0.199 -0.3476 -0.1372  0.1799
 1028SOL     OW 3218   3.005   1.508   4.225  0.3729  0.8004 -0.3743
 1028SOL    HW1 3219   2.943   1.542   4.160  0.6714  2.1619  0.0165
 1028SOL    HW2 3220   3.091   1.522   4.186  0.4632 -1.1877 -0.9644
 1029SOL     OW 3221   4.388   0.596   2.882  0.3690  0.1543  0.6536
 1029SOL    HW1 3222   4.466   0.587   2.936  0.3145  0.2539  0.7496
 1029SOL    HW2 3223   4.363   0.688   2.891  0.1166  0.0719  0.7951
 1030SOL     OW 3224   4.659   4.658   2.505  0.4259 -0.0403  0.6599
 1030SOL    HW1 3225   4.632   4.620   2.421 -1.4981  0.1481  1.1463
 1030SOL    HW2 3226   4.630   4.594   2.570 -0.4251  0.9892  1.3179
 1031SOL     OW 3227   2.212   2.359   0.027  0.7289  0.4835  0.2107
 1031SOL    HW1 3228   2.196   2.451   0.047 -1.5019  0.1595  0.1987
 1031SOL    HW2 3229   2.217   2.356  -0.069 -0.7886  0.4311  0.1015
 1032SOL     OW 3230   4.921   3.061   2.726  0.0464 -0.3220 -0.1713
 1032SOL    HW1 3231   4.843   3.099   2.686 -0.0920 -0.5627 -0.1327
 1032SOL    HW2 3232   4.946   2.990   2.667 -0.8794 -1.4837  0.7807
 1033SOL     OW 3233   2.678   4.440   3.794  0.0199 -0.3151 -0.4361
 1033SOL    HW1 3234   2.630   4.392   3.861 -0.4102 -2.0889 -1.9412
 1033SOL    HW2 3235   2.682   4.380   3.719  3.5444  0.1706 -0.8167
 1034SOL     OW 3236   3.513   3.301   1.399 -0.6444  0.0889  0.2903
 1034SOL    HW1 3237   3.566   3.304   1.319 -1.5275 -0.4466 -0.3232
 1034SOL    HW2 3238   3.554   3.234   1.453 -0.9110 -0.5851 -0.3405
 1035SOL     OW 3239   0.293   4.522   1.724 -0.7738 -0.3741 -0.2550
 1035SOL    HW1 3240   0.202   4.508   1.701 -0.8446  0.2386 -0.3730
 1035SOL    HW2 3241   0.324   4.437   1.756 -1.5318 -0.4576  0.2827
 1036SOL     OW 3242   3.690   4.611   0.279  0.0673  0.1155  0.0741
 1036SOL    HW1 3243   3.633   4.659   0.339 -0.1630 -1.1669  0.9432
 1036SOL    HW2 3244   3.706   4.527   0.323  0.3832 -0.6423 -1.3912
 1037SOL     OW 3245   2.683   4.978   3.847  0.3960  0.0446 -0.0790
 1037SOL    HW1 3246   2.663   4.901   3.794 -2.0171 -0.5172  1.4851
 1037SOL    HW2 3247   2.644   5.051   3.800 -2.6092 -0.5778  1.2279
 1038SOL     OW 3248   4.900   0.615   1.668  0.4663  0.7583  0.1166
 1038SOL    HW1 3249   4.867   0.528   1.694  1.4357  0.2954 -0.1638
 1038SOL    HW2 3250   4.919   0.606   1.574  0.2429  1.3829  0.0090
 1039SOL     OW 3251   2.512   4.536   2.679 -0.0032 -0.1291  0.0232
 1039SOL    HW1 3252   2.529   4.508   2.768 -0.8596  2.8660  1.2486
 1039SOL    HW2 3253   2.538   4.629   2.677 -0.0659 -0.0830 -2.8199
 1040SOL     OW 3254   4.705   0.263   2.292  0.8050 -0.0758 -0.4202
 1040SOL    HW1 3255   4.779   0.272   2.231  2.5570 -2.7302  1.1302
 1040SOL    HW2 3256   4.746   0.240   2.375 -1.8037 -3.6088  0.0906
 1041SOL     OW 3257   3.981   1.103   3.952  0.5257  0.5531 -0.1902
 1041SOL    HW1 3258   3.959   1.078   3.862  2.3686 -0.1029 -0.4961
 1041SOL    HW2 3259   4.054   1.164   3.942  1.5972 -0.5137  0.8989
 1042SOL     OW 3260   2.820   3.682   3.576 -0.3674  0.4290  0.3258
 1042SOL    HW1 3261   2.870   3.752   3.618 -1.1912  0.8271  0.6595
 1042SOL    HW2 3262   2.883   3.611   3.565  0.8975  1.7247 -1.3696
 1043SOL     OW 3263   0.228   1.799   0.950 -0.1611  0.0086 -0.0060
 1043SOL    HW1 3264   0.228   1.813   0.856 -1.1887 -0.6459 -0.1188
 1043SOL    HW2 3265   0.319   1.812   0.977 -0.0635  1.3751 -0.9006
 1044SOL     OW 3266   0.113   1.776   3.168  0.1716  0.4156 -0.5311
 1044SOL    HW1 3267   0.029   1.772   3.123 -0.2887  0.2336  0.3217
 1044SOL    HW2 3268   0.175   1.732   3.109 -0.4354  0.0935 -0.9286
 1045SOL     OW 3269   3.969   4.968   1.721  0.6633  0.4509  0.2387
 1045SOL    HW1 3270   4.006   5.050   1.689  2.1845 -0.0319  0.6790
 1045SOL    HW2 3271   4.013   4.900   1.669  0.9906 -0.1813  1.3133
 1046SOL     OW 3272   3.842   2.578   2.181  0.4248  0.6362 -0.0227
 1046SOL    HW1 3273   3.916   2.517   2.175  0.0974  0.3264 -1.0676
 1046SOL    HW2 3274   3.858   2.643   2.113  1.3646  2.4436  1.8132
 1047SOL     OW 3275   4.095   1.804   2.975 -0.0557  0.1970  0.2475
 1047SOL    HW1 3276   4.156   1.823   3.046 -0.0532 -0.8860  0.5626
 1047SOL    HW2 3277   4.008   1.817   3.013 -0.1341 -2.3315  1.1357
 1048SOL     OW 3278   3.993   2.995   1.342 -0.2640  0.0681  0.4238
 1048SOL    HW1 3279   4.024   3.076   1.301 -1.8250  1.4602  1.8267
 1048SOL    HW2 3280   4.061   2.973   1.406 -0.3116  0.8808  0.7651
 1049SOL     OW 3281   2.971   0.088   2.555  0.5784 -0.3784 -0.2826
 1049SOL    HW1 3282   3.043   0.140   2.519  0.0292 -0.4277 -1.5072
 1049SOL    HW2 3283   3.011   0.039   2.627  2.5631 -2.5972 -2.6598
 1050SOL     OW 3284   4.833   0.885   2.056  0.0326 -0.7678  0.3538
 1050SOL    HW1 3285   4.746   0.847   2.045 -0.7630  0.8085  0.8350
 1050SOL    HW2 3286   4.893   0.811   2.048 -1.3001 -1.7956 -0.6003
 1051SOL     OW 3287   1.483   3.860   4.545 -1.0559 -0.1960  0.1929
 1051SOL    HW1 3288   1.429   3.854   4.466 -0.9585  0.1524  0.0969
 1051SOL    HW2 3289   1.422   3.886   4.614 -1.3315 -1.4430  0.4503
 1052SOL     OW 3290   2.207   2.691   0.422 -0.4322  0.4934 -0.0884
 1052SOL    HW1 3291   2.138   2.711   0.485 -1.8538 -2.3585 -0.5315
 1052SOL    HW2 3292   2.286   2.679   0.474 -1.2402 -0.2918  0.9970
 1053SOL     OW 3293   0.288   1.511   2.597  1.1341 -0.1094  0.3134
 1053SOL    HW1 3294   0.383   1.523   2.608  1.2739 -0.1754 -0.6773
 1053SOL    HW2 3295   0.249   1.567   2.664  1.8653  1.2782 -0.3600
 1054SOL     OW 3296   4.150   4.811   3.302  0.0837 -0.3188  0.0266
 1054SOL    HW1 3297   4.228   4.862   3.325 -0.1953 -0.0054  0.3048
 1054SOL    HW2 3298   4.079   4.876   3.299  0.2745 -0.1381 -2.8799
 1055SOL     OW 3299   4.278   0.185   0.717  0.1832  0.0650  0.5647
 1055SOL    HW1 3300   4.234   0.179   0.632 -1.1866  1.5900  1.1092
 1055SOL    HW2 3301   4.272   0.097   0.753  2.2399 -1.0534 -1.5350
 1056SOL     OW 3302   1.236   4.670   0.554 -0.3420  0.1289  0.2843
 1056SOL    HW1 3303   1.317   4.620   0.562 -1.1954 -1.1115  1.6497
 1056SOL    HW2 3304   1.189   4.629   0.482 -1.0688 -1.1507  1.4439
 1057SOL     OW 3305   3.821   1.794   1.482  0.7120  0.0635  0.0772
 1057SOL    HW1 3306   3.891   1.797   1.416  0.8409 -0.0168  0.2097
 1057SOL    HW2 3307   3.807   1.700   1.497 -0.8773  0.0041 -1.4917
 1058SOL     OW 3308   3.529   0.922   3.507 -0.2076 -0.2836 -0.1763
 1058SOL    HW1 3309   3.491   0.982   3.572  1.0546  0.0816  0.2441
 1058SOL    HW2 3310   3.468   0.848   3.506  1.6181 -2.2934  4.5166
 1059SOL     OW 3311   1.293   1.732   0.940  0.3225  0.1337  0.2672
 1059SOL    HW1 3312   1.365   1.716   0.878  0.6818 -0.5853  0.8468
 1059SOL    HW2 3313   1.231   1.662   0.921 -0.4736  1.0310 -0.5546
 1060SOL     OW 3314   2.814   0.871   2.814  0.8714 -0.0538  0.1867
 1060SOL    HW1 3315   2.847   0.840   2.729 -0.2504 -1.2126  0.1462
 1060SOL    HW2 3316   2.791   0.792   2.861  1.1988  0.5990  1.4783
 1061SOL     OW 3317   4.559   0.354   3.067  0.2096  0.3647  0.1296
 1061SOL    HW1 3318   4.536   0.273   3.113  0.8674  1.1563  1.9172
 1061SOL    HW2 3319   4.654   0.358   3.070  0.3742 -0.0792 -2.3136
 1062SOL     OW 3320   1.548   3.816   4.971  0.2386  0.1415 -0.1780
 1062SOL    HW1 3321   1.491   3.836   4.897  0.8841 -0.2384 -0.7973
 1062SOL    HW2 3322   1.506   3.742   5.014 -1.2294  1.6253  1.0886
 1063SOL     OW 3323   0.336   0.178   4.431  0.5324  0.3140  0.8642
 1063SOL    HW1 3324   0.406   0.135   4.382  1.7603  0.2761  2.5902
 1063SOL    HW2 3325   0.325   0.124   4.509 -0.3028  1.2400  1.4044
 1064SOL     OW 3326   1.667   4.292   1.523  0.4012 -0.5366 -0.0817
 1064SOL    HW1 3327   1.737   4.296   1.458 -0.7254 -0.4374 -1.3247
 1064SOL    HW2 3328   1.669   4.378   1.565  0.8905 -0.4642 -0.2455
 1065SOL     OW 3329   2.121   0.567   2.090  0.2375  0.4911  0.1632
 1065SOL    HW1 3330   2.187   0.539   2.027  1.0268 -0.6947  1.4516
 1065SOL    HW2 3331   2.128   0.662   2.092  0.4782  0.5139 -1.2157
 1066SOL     OW 3332   1.521   4.718   2.323 -0.4746 -0.3211 -0.3697
 1066SOL    HW1 3333   1.432   4.732   2.289 -1.7283  2.9433  3.4970
 1066SOL    HW2 3334   1.537   4.624   2.310 -4.6934 -1.1760 -0.8392
 1067SOL     OW 3335   2.694   1.551   1.684 -0.3851 -0.3297  0.0884
 1067SOL    HW1 3336   2.641   1.601   1.622 -0.6961 -0.8699 -0.0866
 1067SOL    HW2 3337   2.772   1.605   1.697 -1.7979  1.4291  1.8432
 1068SOL     OW 3338   4.259   1.528   2.597  0.3013  0.4046  1.1390
 1068SOL    HW1 3339   4.167   1.510   2.620  0.1349  1.5607  1.4196
 1068SOL    HW2 3340   4.270   1.488   2.511 -0.3961  0.0605  1.2007
 1069SOL     OW 3341   4.410   2.520   1.982 -1.1224 -0.2252 -0.0278
 1069SOL    HW1 3342   4.327   2.523   2.030 -1.3185  1.7086 -0.4059
 1069SOL    HW2 3343   4.427   2.611   1.959  0.3367 -0.7878 -1.2990
 1070SOL     OW 3344   3.586   4.386   2.194 -0.2729  0.0977  0.5470
 1070SOL    HW1 3345   3.536   4.354   2.118 -1.8151  0.3764  1.3946
 1070SOL    HW2 3346   3.593   4.309   2.251  0.6865 -0.0524  0.2419
 1071SOL     OW 3347   0.509   1.879   3.031 -0.2374 -0.2498  0.1375
 1071SOL    HW1 3348   0.475   1.865   3.120  1.8968 -0.4824  0.9753
 1071SOL    HW2 3349   0.522   1.791   2.996  2.2519 -0.3165  1.0084
 1072SOL     OW 3350   4.329   3.857   3.528  0.1478  0.1960  0.2323
 1072SOL    HW1 3351   4.360   3.845   3.618 -1.1307 -1.7089  0.4690
 1072SOL    HW2 3352   4.266   3.928   3.534 -1.0125 -0.8581  1.1710
 1073SOL     OW 3353   0.074   0.864   3.613 -0.0031  0.3323 -0.7206
 1073SOL    HW1 3354   0.117   0.817   3.542 -3.5666 -1.9888 -1.6129
 1073SOL    HW2 3355   0.103   0.819   3.693 -0.1584 -0.6590 -1.2103
 1074SOL     OW 3356   4.260   0.405   3.278 -0.0486 -0.0868  0.0334
 1074SOL    HW1 3357   4.351   0.386   3.299 -0.0080  0.4879  0.3904
 1074SOL    HW2 3358   4.264   0.462   3.201  0.0013  1.7038  1.2940
 1075SOL     OW 3359   3.268   0.907   3.784  0.0644 -0.1001 -0.7808
 1075SOL    HW1 3360   3.193   0.906   3.843  1.5843  1.5815  1.3457
 1075SOL    HW2 3361   3.239   0.857   3.707 -2.0051 -2.5360  1.3709
 1076SOL     OW 3362   4.425   0.413   0.152  0.2800 -0.1044  0.2034
 1076SOL    HW1 3363   4.455   0.322   0.151 -0.4605 -0.3782  1.3507
 1076SOL    HW2 3364   4.337   0.410   0.115 -0.0371  0.0225  0.9329
 1077SOL     OW 3365   2.689   4.686   3.704 -0.3350 -0.5328 -0.7652
 1077SOL    HW1 3366   2.784   4.686   3.689 -0.1909 -1.7379  0.0152
 1077SOL    HW2 3367   2.668   4.595   3.723 -1.4565 -0.0967  0.2158
 1078SOL     OW 3368   1.104   4.668   4.240  0.4953  0.0342  0.3928
 1078SOL    HW1 3369   1.117   4.762   4.236 -0.4019  0.1313 -1.1801
 1078SOL    HW2 3370   1.040   4.649   4.171  0.6621 -1.7211  0.6572
 1079SOL     OW 3371   4.625   0.306   2.753 -0.0274 -0.4858 -0.8131
 1079SOL    HW1 3372   4.610   0.328   2.845  0.1833 -0.4028 -0.7966
 1079SOL    HW2 3373   4.548   0.339   2.707  1.3972  2.7025 -1.1682
 1080SOL     OW 3374   2.732   0.528   1.759 -0.5494 -0.5990 -0.1328
 1080SOL    HW1 3375   2.687   0.445   1.773 -1.3103 -0.4156 -1.2695
 1080SOL    HW2 3376   2.792   0.510   1.686  1.7632 -1.0063  1.7507
 1081SOL     OW 3377   2.107   0.178   3.298  0.2602 -0.1506  0.5871
 1081SOL    HW1 3378   2.030   0.221   3.260  0.5492 -0.5858 -0.5214
 1081SOL    HW2 3379   2.082   0.086   3.304  0.4183 -0.1715  0.9631
 1082SOL     OW 3380   1.089   4.541   0.376 -0.0788  0.3826 -0.1176
 1082SOL    HW1 3381   1.158   4.481   0.346 -0.2710 -0.1837  0.5592
 1082SOL    HW2 3382   1.018   4.528   0.313 -0.3088 -0.4779  0.3028
 1083SOL     OW 3383   0.507   2.744   1.988  1.0383  0.1186 -0.2801
 1083SOL    HW1 3384   0.536   2.833   2.006 -0.1481  0.3907  0.3302
 1083SOL    HW2 3385   0.584   2.701   1.951  2.1300  0.8964  1.0192
 1084SOL     OW 3386   4.019   1.816   4.637  0.0603  0.3283  0.3304
 1084SOL    HW1 3387   4.092   1.858   4.681  0.4081  0.3259 -0.2312
 1084SOL    HW2 3388   3.987   1.750   4.699 -0.0907  0.9890  0.9666
 1085SOL     OW 3389   0.861   2.550   1.319  0.3205 -0.1921 -0.0439
 1085SOL    HW1 3390   0.785   2.508   1.279  1.8914 -2.3032 -1.0551
 1085SOL    HW2 3391   0.896   2.483   1.379  2.6868 -0.2775 -1.3810
 1086SOL     OW 3392   3.325   1.587   1.588 -0.2376  0.6519 -0.4501
 1086SOL    HW1 3393   3.335   1.578   1.494  0.7697 -0.9317 -0.2235
 1086SOL    HW2 3394   3.404   1.633   1.617  0.3417 -0.5017 -0.1711
 1087SOL     OW 3395   3.378   1.127   1.066  0.3200  0.9158  0.2072
 1087SOL    HW1 3396   3.324   1.198   1.032  0.5983  0.9479 -0.1699
 1087SOL    HW2 3397   3.408   1.080   0.988 -0.0024  0.2802  0.4576
 1088SOL     OW 3398   2.204   2.954   0.300 -0.3372  0.3705  0.3687
 1088SOL    HW1 3399   2.299   2.943   0.301 -0.4338 -0.5502  0.8064
 1088SOL    HW2 3400   2.172   2.894   0.368 -1.5379 -2.7029 -2.5916
 1089SOL     OW 3401   2.325   0.503   2.303  0.3658 -0.2722  0.5133
 1089SOL    HW1 3402   2.313   0.566   2.232 -0.7788 -0.4154  0.5639
 1089SOL    HW2 3403   2.353   0.423   2.260  1.4213  0.1334  0.4099
 1090SOL     OW 3404   0.273   0.193   3.498  0.2254 -0.8466  0.5214
 1090SOL    HW1 3405   0.198   0.209   3.555 -0.1141 -0.3932 -0.0471
 1090SOL    HW2 3406   0.349   0.202   3.556 -0.0062  1.3971  0.5499
 1091SOL     OW 3407   2.974   2.474   1.818 -0.1161  0.2193 -0.0367
 1091SOL    HW1 3408   2.977   2.519   1.734  1.9748  1.9937  0.9115
 1091SOL    HW2 3409   3.036   2.401   1.809 -2.7561 -2.0547 -1.2295
 1092SOL     OW 3410   3.539   2.180   0.274  0.0295  0.2570  0.1489
 1092SOL    HW1 3411   3.450   2.185   0.240  0.2142  1.2587 -0.2107
 1092SOL    HW2 3412   3.536   2.109   0.338 -1.0741  0.4156  0.2926
 1093SOL     OW 3413   1.374   4.098   3.752  0.2371  0.0549  0.7365
 1093SOL    HW1 3414   1.372   4.032   3.822 -0.4071 -0.8165 -0.0832
 1093SOL    HW2 3415   1.466   4.121   3.742  0.5624 -1.3109  0.4939
 1094SOL     OW 3416   4.908   0.513   0.801 -0.3429 -0.3594 -0.3339
 1094SOL    HW1 3417   4.905   0.530   0.707 -0.3000  0.9101 -0.1219
 1094SOL    HW2 3418   4.830   0.556   0.836 -0.6169 -1.2373  0.1512
 1095SOL     OW 3419   0.186   2.016   3.319 -0.4547  0.6068 -0.1583
 1095SOL    HW1 3420   0.165   1.929   3.287 -0.5724  0.0588  1.3376
 1095SOL    HW2 3421   0.251   2.049   3.257  0.0259 -0.7696 -0.4234
 1096SOL     OW 3422   0.447   4.744   3.389 -0.1255  0.2456  0.1525
 1096SOL    HW1 3423   0.542   4.733   3.388  0.1525  1.4146  2.8406
 1096SOL    HW2 3424   0.433   4.836   3.369 -0.4268  0.6723  2.0585
 1097SOL     OW 3425   0.060   2.099   1.808  0.3769  0.6449  0.0729
 1097SOL    HW1 3426   0.016   2.124   1.727 -1.3431  1.1110  1.0997
 1097SOL    HW2 3427  -0.007   2.051   1.857  1.3179  0.5739  1.3253
 1098SOL     OW 3428   4.927   3.633   4.283  0.2312  0.0924  0.0337
 1098SOL    HW1 3429   4.945   3.660   4.193 -0.1172  0.7723  0.1609
 1098SOL    HW2 3430   4.839   3.597   4.281  0.8422 -1.5053 -0.2188
 1099SOL     OW 3431   1.562   0.349   3.179  0.4316  0.7504  0.3589
 1099SOL    HW1 3432   1.487   0.375   3.232 -0.5822  0.1278 -0.7289
 1099SOL    HW2 3433   1.638   0.367   3.234 -0.4443  2.4084  1.0715
 1100SOL     OW 3434   1.112   2.852   3.698 -0.9558 -0.2178 -0.4545
 1100SOL    HW1 3435   1.092   2.910   3.625 -2.0546 -0.6886 -0.5437
 1100SOL    HW2 3436   1.059   2.887   3.771  1.2122  1.1393  0.5807
 1101SOL     OW 3437   4.003   2.468   3.550  0.8309 -0.1614 -0.5664
 1101SOL    HW1 3438   3.953   2.535   3.503 -1.4769 -1.4035 -0.0431
 1101SOL    HW2 3439   3.969   2.471   3.639  0.8027 -1.8764 -0.4856
 1102SOL     OW 3440   2.652   3.674   4.479 -0.3320  0.1844  0.0931
 1102SOL    HW1 3441   2.609   3.598   4.517 -1.0909  0.0729 -0.9370
 1102SOL    HW2 3442   2.661   3.653   4.386 -0.5605  1.3330 -0.2116
 1103SOL     OW 3443   4.940   2.769   2.688  0.5636 -0.3351 -0.0414
 1103SOL    HW1 3444   4.867   2.769   2.626  0.8408  3.2777 -0.5625
 1103SOL    HW2 3445   5.015   2.739   2.638  0.6239  1.8007 -1.3144
 1104SOL     OW 3446   4.049   0.199   2.764 -0.6593 -0.1365 -0.0680
 1104SOL    HW1 3447   4.084   0.256   2.695  2.3005 -1.0129  0.5738
 1104SOL    HW2 3448   4.085   0.236   2.845 -0.0673 -1.9062  0.5128
 1105SOL     OW 3449   3.072   4.927   2.788 -0.1410  0.2291 -0.5900
 1105SOL    HW1 3450   3.147   4.887   2.743  0.0558  0.5938 -0.5930
 1105SOL    HW2 3451   2.999   4.867   2.770 -0.0224  0.2650 -1.2361
 1106SOL     OW 3452   4.927   0.139   4.756  0.0451  0.1426  0.2271
 1106SOL    HW1 3453   4.841   0.150   4.797 -1.2174 -1.7231 -1.6671
 1106SOL    HW2 3454   4.911   0.150   4.662  2.4635  2.5007 -0.0311
 1107SOL     OW 3455   4.378   1.602   0.281  0.4787  0.8904  0.0785
 1107SOL    HW1 3456   4.360   1.603   0.375  1.9593  0.4222  0.3993
 1107SOL    HW2 3457   4.316   1.537   0.246 -0.4195  1.4217  0.6327
 1108SOL     OW 3458   3.447   0.695   2.946 -0.0658  0.0826  0.2407
 1108SOL    HW1 3459   3.377   0.709   2.883 -0.2615 -1.5574  0.0297
 1108SOL    HW2 3460   3.521   0.663   2.894 -0.2776 -1.4310  0.8007
 1109SOL     OW 3461  -0.001   1.723   2.104  0.5784  0.0437 -0.0668
 1109SOL    HW1 3462   0.020   1.735   2.197 -0.4338  0.7415  0.0938
 1109SOL    HW2 3463   0.082   1.698   2.063  0.8772 -1.0809  1.1613
 1110SOL     OW 3464   4.866   0.727   1.420 -0.0220 -0.0246  0.8021
 1110SOL    HW1 3465   4.957   0.719   1.392 -0.7838  1.6040 -2.7090
 1110SOL    HW2 3466   4.824   0.646   1.391  0.3560 -1.1320  3.1279
 1111SOL     OW 3467   4.574   0.684   0.146 -0.7708  0.6562 -1.1293
 1111SOL    HW1 3468   4.586   0.589   0.142  3.1032  1.0181 -2.8360
 1111SOL    HW2 3469   4.546   0.708   0.057 -0.6867  1.2034 -1.0104
 1112SOL     OW 3470   3.143   1.718   0.824 -0.0565 -0.2160 -1.1157
 1112SOL    HW1 3471   3.138   1.811   0.847 -4.4739 -0.4790 -0.1698
 1112SOL    HW2 3472   3.117   1.714   0.732 -0.9773 -0.5750 -0.8456
 1113SOL     OW 3473   2.881   1.405   0.699 -0.1379 -0.2045 -0.4548
 1113SOL    HW1 3474   2.825   1.483   0.701  0.4413  0.2588  3.1624
 1113SOL    HW2 3475   2.844   1.347   0.765  1.5065 -1.4780 -0.5939
 1114SOL     OW 3476   0.189   4.179   3.297  0.1835  0.5065 -0.5385
 1114SOL    HW1 3477   0.245   4.220   3.362 -1.5647  1.7305  0.2723
 1114SOL    HW2 3478   0.218   4.217   3.214  1.8750 -0.4392 -0.4225
 1115SOL     OW 3479   3.341   4.406   1.347 -0.3877 -0.0461  0.4522
 1115SOL    HW1 3480   3.263   4.376   1.301 -0.3797  1.4954 -0.6803
 1115SOL    HW2 3481   3.414   4.378   1.291 -0.3907  2.1101 -0.7676
 1116SOL     OW 3482   3.457   4.613   4.669  0.1847  0.6453  0.0890
 1116SOL    HW1 3483   3.434   4.551   4.738  0.0499 -0.6153 -1.0441
 1116SOL    HW2 3484   3.479   4.558   4.593 -3.6458  1.8335 -2.2042
 1117SOL     OW 3485   1.196   1.402   4.629 -0.0096 -0.5085 -0.2210
 1117SOL    HW1 3486   1.130   1.440   4.570 -0.3586 -1.4347 -0.4480
 1117SOL    HW2 3487   1.248   1.477   4.658 -1.7838  0.4175  0.7604
 1118SOL     OW 3488   2.952   1.962   3.463  0.0559  0.5055  0.0419
 1118SOL    HW1 3489   3.001   1.883   3.485 -0.2308  0.6120  1.1009
 1118SOL    HW2 3490   2.899   1.980   3.540 -0.9088  0.9675 -0.7051
 1119SOL     OW 3491   3.307   0.075   4.836  0.3359  0.0042  0.2348
 1119SOL    HW1 3492   3.378   0.042   4.781  2.1711  4.4683 -0.4828
 1119SOL    HW2 3493   3.350   0.099   4.919 -0.6397  1.2624  0.4077
 1120SOL     OW 3494   2.982   3.009   1.874 -0.3809 -0.0637  0.3488
 1120SOL    HW1 3495   3.054   3.050   1.827  0.5394 -0.3106  1.4925
 1120SOL    HW2 3496   2.905   3.062   1.852 -0.3161 -1.0017 -2.5562
 1121SOL     OW 3497   4.380   2.368   4.158  0.4601 -0.7265 -0.5372
 1121SOL    HW1 3498   4.314   2.437   4.171  0.4007 -0.6900 -1.0197
 1121SOL    HW2 3499   4.461   2.408   4.189  0.1441 -1.0193  0.7344
 1122SOL     OW 3500   4.904   0.242   0.491  0.4665  0.3700  0.4978
 1122SOL    HW1 3501   4.931   0.227   0.581 -2.4376  0.4785  1.5119
 1122SOL    HW2 3502   4.899   0.338   0.483 -1.8341  0.3876  1.2088
 1123SOL     OW 3503   2.580   3.837   1.864 -0.0509 -0.1550 -1.0050
 1123SOL    HW1 3504   2.600   3.882   1.782 -0.4160  1.8770 -0.0622
 1123SOL    HW2 3505   2.486   3.823   1.862  0.1856 -1.8508 -1.7171
 1124SOL     OW 3506   3.968   2.691   1.507  0.2216 -0.4243  1.2513
 1124SOL    HW1 3507   3.952   2.674   1.600 -0.9171  0.8444  1.3304
 1124SOL    HW2 3508   4.020   2.771   1.505 -0.7426  0.2213  0.8071
 1125SOL     OW 3509   3.065   2.288   0.873  0.1072  0.0798 -0.1108
 1125SOL    HW1 3510   3.127   2.316   0.940 -1.4224 -0.0211  1.4395
 1125SOL    HW2 3511   3.035   2.202   0.903 -2.0318  0.8553  0.1800
 1126SOL     OW 3512   0.809   3.674   3.147  0.7945  0.2002  0.1705
 1126SOL    HW1 3513   0.794   3.672   3.053  0.4369 -0.1125  0.2320
 1126SOL    HW2 3514   0.732   3.719   3.183  0.2248 -0.9451  0.4385
 1127SOL     OW 3515   4.388   2.976   3.529  0.7991  0.0906 -0.0647
 1127SOL    HW1 3516   4.377   3.002   3.438  1.0221 -1.0258 -0.4343
 1127SOL    HW2 3517   4.448   2.901   3.525  2.1492  1.0570  1.1602
 1128SOL     OW 3518   4.442   3.433   0.441  0.6699  0.1720  0.2652
 1128SOL    HW1 3519   4.423   3.513   0.490  0.9948  0.5754 -0.2529
 1128SOL    HW2 3520   4.536   3.440   0.421  1.3831 -1.6005  2.5013
 1129SOL     OW 3521   3.491   1.156   2.637 -0.7542 -0.1219 -0.1132
 1129SOL    HW1 3522   3.507   1.155   2.542 -0.3418 -1.4484 -0.0476
 1129SOL    HW2 3523   3.533   1.076   2.669 -1.8136 -0.2429  1.0362
 1130SOL     OW 3524   3.928   1.404   0.304 -0.2450  0.1484 -0.7020
 1130SOL    HW1 3525   4.011   1.385   0.348  0.4471  1.5399 -1.3399
 1130SOL    HW2 3526   3.952   1.419   0.212 -1.1405  0.8885 -0.8376
 1131SOL     OW 3527   3.061   0.068   4.700  0.1115  0.0612 -0.2651
 1131SOL    HW1 3528   3.141   0.111   4.732 -1.4148  2.9249  0.0821
 1131SOL    HW2 3529   3.069   0.071   4.605 -0.1961  1.8306 -0.2788
 1132SOL     OW 3530   3.962   4.288   3.770  0.0750  0.3198 -0.0859
 1132SOL    HW1 3531   3.948   4.206   3.817  0.0133 -0.2690 -1.1204
 1132SOL    HW2 3532   3.914   4.353   3.822 -3.7804 -1.0183 -1.6115
 1133SOL     OW 3533   1.464   4.421   0.727 -0.2667 -0.2459 -0.2161
 1133SOL    HW1 3534   1.493   4.404   0.637  0.1313 -2.0974  0.2181
 1133SOL    HW2 3535   1.369   4.411   0.723 -0.0616 -3.9751  0.1447
 1134SOL     OW 3536   4.057   1.438   4.523  0.2660 -0.1937 -0.1315
 1134SOL    HW1 3537   4.103   1.355   4.510 -0.3771 -0.7266  0.9472
 1134SOL    HW2 3538   4.113   1.502   4.479  0.7997 -1.1721 -0.9338
 1135SOL     OW 3539   2.647   4.078   4.916 -0.2797  0.5106 -0.2071
 1135SOL    HW1 3540   2.703   4.154   4.931 -0.8973  0.8855  0.2439
 1135SOL    HW2 3541   2.568   4.114   4.875 -1.0004  0.2672  0.9170
 1136SOL     OW 3542   2.302   4.651   4.961  0.6761  0.0426  0.2964
 1136SOL    HW1 3543   2.289   4.745   4.949  1.0070  0.4309  2.6109
 1136SOL    HW2 3544   2.397   4.639   4.955  0.6129 -0.2187 -0.3069
 1137SOL     OW 3545   2.977   1.015   4.302 -0.7799  0.4775 -0.1253
 1137SOL    HW1 3546   3.053   1.035   4.356  0.3339 -2.4991 -0.4131
 1137SOL    HW2 3547   2.989   0.924   4.276 -3.5209  0.4651 -1.7564
 1138SOL     OW 3548   3.035   4.873   0.716 -0.8595 -0.0421 -0.0740
 1138SOL    HW1 3549   3.070   4.929   0.785 -0.8918  0.4191 -0.4182
 1138SOL    HW2 3550   3.046   4.925   0.636  0.2693 -1.0314 -0.5983
 1139SOL     OW 3551   2.828   0.033   2.338  0.0357 -0.6428  0.0421
 1139SOL    HW1 3552   2.738  -0.000   2.342 -0.6568  1.1130 -0.1785
 1139SOL    HW2 3553   2.850   0.051   2.430 -1.3505  2.6094 -0.1370
 1140SOL     OW 3554   0.189   1.027   1.601 -0.3043 -0.0214  0.4190
 1140SOL    HW1 3555   0.161   0.946   1.642 -1.5397 -0.5096 -1.2592
 1140SOL    HW2 3556   0.188   1.092   1.671 -2.3588 -0.7898  1.1685
 1141SOL     OW 3557   2.522   4.502   4.467  0.2350 -0.0967  0.2151
 1141SOL    HW1 3558   2.616   4.496   4.480  0.5557  2.5361 -0.3576
 1141SOL    HW2 3559   2.504   4.448   4.390  1.3448 -0.1709 -0.0011
 1142SOL     OW 3560   3.656   3.728   2.724  0.0606  0.3926 -0.0530
 1142SOL    HW1 3561   3.682   3.725   2.816  2.7445 -0.0798 -0.7245
 1142SOL    HW2 3562   3.738   3.747   2.677 -1.1290  0.1353 -2.3787
 1143SOL     OW 3563   4.095   1.979   2.090 -0.4870  0.0765 -0.3355
 1143SOL    HW1 3564   4.118   2.029   2.168 -0.7495  0.5390 -0.5521
 1143SOL    HW2 3565   4.165   1.997   2.028 -1.1676  1.1058 -0.8250
 1144SOL     OW 3566   1.955   1.134   0.773 -0.1900 -0.2597  0.1237
 1144SOL    HW1 3567   2.012   1.199   0.814 -1.3773  2.1974 -1.8456
 1144SOL    HW2 3568   1.998   1.114   0.690 -0.7245 -0.6274 -0.0675
 1145SOL     OW 3569   1.944   0.813   4.148 -0.2758 -0.1458 -0.9812
 1145SOL    HW1 3570   1.963   0.836   4.239  0.5743 -2.9881 -0.3535
 1145SOL    HW2 3571   1.995   0.876   4.097  0.1844  0.7499  0.5078
 1146SOL     OW 3572   1.341   2.381   4.215  0.0134  0.3217 -0.0737
 1146SOL    HW1 3573   1.288   2.460   4.225  1.2710  1.1665  0.1183
 1146SOL    HW2 3574   1.420   2.398   4.267 -0.0641 -1.4109  0.6747
 1147SOL     OW 3575   4.179   3.802   4.927  0.7707  0.1587 -0.3318
 1147SOL    HW1 3576   4.188   3.897   4.922  0.7694  0.2170  0.5257
 1147SOL    HW2 3577   4.260   3.772   4.968 -0.3086  0.0913  1.9315
 1148SOL     OW 3578   1.637   1.522   4.132 -0.0989 -0.0392 -0.0223
 1148SOL    HW1 3579   1.622   1.501   4.039  0.5021 -0.2939 -0.0685
 1148SOL    HW2 3580   1.717   1.475   4.154 -1.0342 -1.2122  1.0394
 1149SOL     OW 3581   2.321   1.880   3.383  0.1050  0.7103  0.8008
 1149SOL    HW1 3582   2.250   1.938   3.411  0.6679  1.3703  0.8656
 1149SOL    HW2 3583   2.302   1.796   3.426 -0.6033  0.8947  0.8590
 1150SOL     OW 3584   3.562   2.482   3.048  0.4044  0.0954  0.4689
 1150SOL    HW1 3585   3.597   2.393   3.052 -0.5668 -0.2754  0.9381
 1150SOL    HW2 3586   3.632   2.533   3.006  0.6279 -1.0518 -0.6118
 1151SOL     OW 3587   0.878   0.568   4.874 -0.3221 -0.2305 -1.1180
 1151SOL    HW1 3588   0.971   0.548   4.863  0.1762 -1.3496  3.1228
 1151SOL    HW2 3589   0.876   0.661   4.896  0.1500 -0.6157  0.7474
 1152SOL     OW 3590   3.667   0.598   1.520 -0.3773  0.5764 -0.3905
 1152SOL    HW1 3591   3.615   0.647   1.457  1.1952  3.9052  0.7070
 1152SOL    HW2 3592   3.751   0.584   1.476  0.0482  1.1472  0.2268
 1153SOL     OW 3593   3.777   0.338   0.523 -0.5205  0.6567 -0.2081
 1153SOL    HW1 3594   3.774   0.423   0.480 -1.0002  1.1887  0.8262
 1153SOL    HW2 3595   3.810   0.357   0.611  1.3164 -0.5287 -0.5944
 1154SOL     OW 3596   0.629   0.996   2.481 -0.0514 -0.2040  0.7605
 1154SOL    HW1 3597   0.650   0.914   2.438  1.3247  0.2048  0.5996
 1154SOL    HW2 3598   0.552   1.030   2.434  1.0559 -0.0556 -1.0082
 1155SOL     OW 3599   2.426   1.181   2.126 -0.7496  0.7137  0.8246
 1155SOL    HW1 3600   2.453   1.270   2.102 -2.3233  1.2084  0.7894
 1155SOL    HW2 3601   2.438   1.177   2.221 -0.1197  0.7447  0.7545
 1156SOL     OW 3602   2.758   4.174   1.708 -0.5124 -0.6291 -0.3276
 1156SOL    HW1 3603   2.768   4.264   1.678  2.8139 -0.4146  0.9896
 1156SOL    HW2 3604   2.691   4.179   1.777  1.8672  1.6013  2.0582
 1157SOL     OW 3605   1.831   0.332   3.302 -0.1092  0.9479  0.1965
 1157SOL    HW1 3606   1.804   0.241   3.290  1.4054  0.6141 -0.8944
 1157SOL    HW2 3607   1.865   0.335   3.392 -0.1517  0.4279  0.2311
 1158SOL     OW 3608   4.812   3.361   4.129  0.6011  0.3051  0.2536
 1158SOL    HW1 3609   4.835   3.446   4.092  0.2813  0.1280 -0.3603
 1158SOL    HW2 3610   4.718   3.353   4.115  0.4054  0.3792  1.4228
 1159SOL     OW 3611   1.462   0.390   0.650  0.1249 -0.1978 -0.7482
 1159SOL    HW1 3612   1.541   0.336   0.657 -0.6226 -1.3022 -0.5366
 1159SOL    HW2 3613   1.471   0.455   0.720 -0.1023 -1.6012  0.6452
 1160SOL     OW 3614   3.386   4.068   0.371 -1.0809 -0.2127 -0.2233
 1160SOL    HW1 3615   3.325   4.136   0.400 -1.4159  0.0357 -1.4419
 1160SOL    HW2 3616   3.372   4.063   0.277  0.6135 -0.3400 -0.4921
 1161SOL     OW 3617   3.277   4.013   2.480 -0.5886  0.2454 -0.6618
 1161SOL    HW1 3618   3.273   3.987   2.572  0.9701  2.3646  0.0747
 1161SOL    HW2 3619   3.206   4.077   2.470  0.3534  1.3561 -0.4227
 1162SOL     OW 3620   0.617   4.285   3.306  0.6103 -0.5382  0.2682
 1162SOL    HW1 3621   0.577   4.219   3.362  2.4058  0.0262  2.3419
 1162SOL    HW2 3622   0.618   4.244   3.219 -2.1625 -1.4722  0.5701
 1163SOL     OW 3623   4.022   3.814   1.049  0.7350  0.3765  0.0806
 1163SOL    HW1 3624   4.100   3.800   0.995  1.1086  0.5452  0.5708
 1163SOL    HW2 3625   4.034   3.756   1.124 -1.1830 -2.1386 -1.3974
 1164SOL     OW 3626   1.434   3.166   0.237 -0.2747  0.1720 -0.4898
 1164SOL    HW1 3627   1.414   3.165   0.144  0.9058 -1.0421 -0.7614
 1164SOL    HW2 3628   1.449   3.074   0.260 -0.9612  0.3947  1.0063
 1165SOL     OW 3629   1.167   2.069   2.919 -0.0727 -0.3835  0.2706
 1165SOL    HW1 3630   1.074   2.065   2.899  0.3245 -1.2742 -1.7192
 1165SOL    HW2 3631   1.181   2.158   2.950 -1.5504 -0.1852  0.4411
 1166SOL     OW 3632   4.596   2.878   3.879 -0.5350  0.1530 -0.0333
 1166SOL    HW1 3633   4.506   2.879   3.912 -1.1390 -1.9743 -1.4129
 1166SOL    HW2 3634   4.620   2.785   3.877  2.2810  0.7404  1.6924
 1167SOL     OW 3635   4.773   1.529   4.193 -0.3380 -0.5124 -0.1717
 1167SOL    HW1 3636   4.865   1.529   4.219 -1.0207  0.5723  2.6053
 1167SOL    HW2 3637   4.768   1.589   4.119  1.2627 -1.2415 -0.9290
 1168SOL     OW 3638   3.380   3.109   2.242 -0.1488 -0.3525  0.1574
 1168SOL    HW1 3639   3.295   3.074   2.215 -0.6894 -0.2508  1.6303
 1168SOL    HW2 3640   3.442   3.073   2.179 -1.3319  0.0094 -1.2924
 1169SOL     OW 3641   2.230   3.981   2.709  0.3182 -0.1791 -0.2790
 1169SOL    HW1 3642   2.297   4.044   2.737  1.2150 -0.6128 -1.3715
 1169SOL    HW2 3643   2.173   4.032   2.652  0.0208  0.0583  0.2220
 1170SOL     OW 3644   2.118   1.458   0.271 -0.6039  0.0847 -0.0147
 1170SOL    HW1 3645   2.193   1.499   0.227 -0.0217 -1.3245 -0.4020
 1170SOL    HW2 3646   2.042   1.488   0.221 -0.3646  1.9163  0.6788
 1171SOL     OW 3647   4.054   3.413   1.098 -0.1492  0.4735  0.1931
 1171SOL    HW1 3648   3.989   3.477   1.068  2.4115  3.5991  0.8000
 1171SOL    HW2 3649   4.087   3.372   1.018 -1.5396  0.1593 -0.2445
 1172SOL     OW 3650   4.862   3.136   3.972 -0.8299  0.3639 -0.1272
 1172SOL    HW1 3651   4.879   3.227   3.996  0.6570 -0.0270  0.4326
 1172SOL    HW2 3652   4.775   3.117   4.009 -0.2888  0.9701  1.5775
 1173SOL     OW 3653   3.972   2.152   0.325 -0.7623  0.1958  0.0441
 1173SOL    HW1 3654   4.010   2.065   0.314  0.4939  0.7280  0.0219
 1173SOL    HW2 3655   3.997   2.178   0.414  2.1054  1.9856 -1.1327
 1174SOL     OW 3656   1.665   1.165   4.234 -0.4736  0.1345  0.3466
 1174SOL    HW1 3657   1.613   1.087   4.251  0.9508 -0.6724  1.2386
 1174SOL    HW2 3658   1.610   1.238   4.264 -1.4293 -0.5954  0.4207
 1175SOL     OW 3659   2.893   0.658   2.247 -0.1036  0.9679  0.4147
 1175SOL    HW1 3660   2.803   0.643   2.276  0.2151 -1.4082  0.3940
 1175SOL    HW2 3661   2.916   0.578   2.200  1.7410  1.8876 -0.3352
 1176SOL     OW 3662   3.057   1.677   1.402  0.2481  0.1778 -0.3099
 1176SOL    HW1 3663   3.090   1.730   1.474  0.0235  1.3588 -1.0532
 1176SOL    HW2 3664   3.114   1.599   1.402  0.2882  0.1900  1.0738
 1177SOL     OW 3665   1.530   4.251   0.510  0.0241  0.1947  0.4532
 1177SOL    HW1 3666   1.538   4.157   0.489  0.0165  0.6933 -2.1669
 1177SOL    HW2 3667   1.617   4.275   0.542 -0.5999 -1.1219  3.5127
 1178SOL     OW 3668   4.497   3.470   1.525  0.2974  0.4404 -0.1916
 1178SOL    HW1 3669   4.575   3.521   1.544  1.7150 -1.8511  0.4788
 1178SOL    HW2 3670   4.527   3.401   1.466 -1.4937  0.1869 -0.8704
 1179SOL     OW 3671   1.660   1.817   2.946  0.5216 -0.2982  0.0040
 1179SOL    HW1 3672   1.719   1.811   2.871 -0.5521  0.5331 -0.9241
 1179SOL    HW2 3673   1.574   1.832   2.909 -0.0302  0.1913  1.4121
 1180SOL     OW 3674   4.981   2.479   1.433 -0.5232 -0.4175  0.1790
 1180SOL    HW1 3675   4.905   2.517   1.477 -0.6339  1.1741 -1.3053
 1180SOL    HW2 3676   5.056   2.513   1.480 -0.6739 -0.7588  0.6815
 1181SOL     OW 3677   3.229   0.570   3.966 -0.2057  0.1062 -0.4713
 1181SOL    HW1 3678   3.282   0.627   4.021 -0.8033 -1.5099  1.9402
 1181SOL    HW2 3679   3.138   0.591   3.989 -0.4431 -1.3050  0.0184
 1182SOL     OW 3680   3.198   3.359   4.980  0.6340  0.2204  0.3092
 1182SOL    HW1 3681   3.196   3.392   4.890 -0.4575 -0.7440 -0.0522
 1182SOL    HW2 3682   3.160   3.429   5.032  1.8326  1.0340  0.1329
 1183SOL     OW 3683   2.533   1.097   2.608  0.9046 -0.3754  0.0901
 1183SOL    HW1 3684   2.616   1.050   2.609 -0.0636 -2.2408  2.1089
 1183SOL    HW2 3685   2.475   1.042   2.556  0.6947  0.4970 -0.6213
 1184SOL     OW 3686   2.019   0.999   2.671  0.2310 -0.6111 -0.1328
 1184SOL    HW1 3687   2.089   1.064   2.660  0.7303 -1.1926 -0.4693
 1184SOL    HW2 3688   2.063   0.921   2.703 -0.4479 -0.6274  0.8186
 1185SOL     OW 3689   0.148   4.247   1.472  0.0882 -0.2611  0.3879
 1185SOL    HW1 3690   0.073   4.193   1.498  1.3903 -1.3328  2.1761
 1185SOL    HW2 3691   0.151   4.317   1.537  0.1406  0.2843 -0.1937
 1186SOL     OW 3692   4.393   1.335   3.040 -0.3319 -0.1198 -0.0308
 1186SOL    HW1 3693   4.392   1.326   3.135 -0.9072 -1.9123 -0.1709
 1186SOL    HW2 3694   4.312   1.382   3.019 -1.0892 -1.2576  0.2618
 1187SOL     OW 3695   2.104   4.083   2.098  0.8458  0.3527  0.0605
 1187SOL    HW1 3696   2.027   4.085   2.155  0.8370 -1.2925  0.1484
 1187SOL    HW2 3697   2.156   4.010   2.131  1.5149  0.2440 -1.1839
 1188SOL     OW 3698   1.487   2.857   0.271  0.0644 -0.1921  0.4516
 1188SOL    HW1 3699   1.447   2.847   0.185  0.4709 -0.8070  0.3310
 1188SOL    HW2 3700   1.491   2.768   0.306  3.4080 -0.5540 -0.4684
 1189SOL     OW 3701   3.280   3.981   4.557  0.2870  0.2600  0.3061
 1189SOL    HW1 3702   3.297   3.917   4.626  0.1748 -1.2270 -0.9883
 1189SOL    HW2 3703   3.187   4.000   4.564  0.4515  0.7911  1.1096
 1190SOL     OW 3704   0.951   4.709   1.381 -0.8582  0.4259 -0.2961
 1190SOL    HW1 3705   1.015   4.641   1.357 -0.0297  0.4862  1.5892
 1190SOL    HW2 3706   0.879   4.661   1.421 -1.4459  0.4689 -1.2739
 1191SOL     OW 3707   0.567  -0.010   4.685  0.3442 -0.8151  0.1596
 1191SOL    HW1 3708   0.472  -0.018   4.694  0.2160  0.6989  0.3562
 1191SOL    HW2 3709   0.580   0.063   4.625  1.3763  1.0050  2.4354
 1192SOL     OW 3710   3.374   1.234   4.134 -0.4759  0.8688 -0.0922
 1192SOL    HW1 3711   3.448   1.241   4.194  1.0126 -0.7957 -1.6283
 1192SOL    HW2 3712   3.413   1.218   4.049 -2.6048 -1.2210 -0.7827
 1193SOL     OW 3713   2.885   2.227   3.639 -0.9729 -0.1454 -0.4900
 1193SOL    HW1 3714   2.820   2.290   3.609 -0.8034  0.7339  0.9055
 1193SOL    HW2 3715   2.834   2.159   3.684 -0.9958  0.2695  0.1318
 1194SOL     OW 3716   2.502   1.414   0.574 -0.6286  0.5803  0.1326
 1194SOL    HW1 3717   2.544   1.443   0.493 -1.9540  2.1197 -0.0394
 1194SOL    HW2 3718   2.559   1.445   0.644  0.4928 -0.7055 -0.1723
 1195SOL     OW 3719   2.823   4.515   0.410 -0.4347  0.1105 -0.2027
 1195SOL    HW1 3720   2.845   4.441   0.467 -2.2819  2.1404  3.4872
 1195SOL    HW2 3721   2.879   4.587   0.441 -0.2955  0.9243 -2.1690
 1196SOL     OW 3722   1.614   3.592   4.231  0.0305 -0.4249 -0.1074
 1196SOL    HW1 3723   1.594   3.520   4.172 -1.4014  0.6851 -1.0446
 1196SOL    HW2 3724   1.698   3.627   4.200 -1.4270  1.1509 -2.6208
 1197SOL     OW 3725   0.343   4.190   4.378 -0.4818  0.8678  0.4566
 1197SOL    HW1 3726   0.410   4.140   4.424  0.0365  0.5721 -0.5744
 1197SOL    HW2 3727   0.321   4.261   4.437  1.0409  1.1981  0.6652
 1198SOL     OW 3728   1.226   2.420   1.948 -0.0788  0.2197 -0.1080
 1198SOL    HW1 3729   1.273   2.350   1.902 -1.2456 -0.8116  0.1955
 1198SOL    HW2 3730   1.138   2.384   1.962 -0.0010  0.7960  2.2320
 1199SOL     OW 3731   2.948   1.047   3.667 -0.0505 -0.1778 -0.1996
 1199SOL    HW1 3732   2.985   1.026   3.753  2.6845  1.0986 -0.9410
 1199SOL    HW2 3733   2.998   1.123   3.637 -2.0704  0.4681 -2.2282
 1200SOL     OW 3734   3.931   4.219   1.956 -0.3059  0.1140  0.2900
 1200SOL    HW1 3735   3.882   4.206   2.037 -1.9134  2.1768 -0.2457
 1200SOL    HW2 3736   4.011   4.167   1.966 -0.9247 -0.4412  2.7640
 1201SOL     OW 3737   0.786   1.339   1.569  0.2120 -0.2150 -0.5927
 1201SOL    HW1 3738   0.784   1.247   1.598  1.1997 -0.3240 -0.7995
 1201SOL    HW2 3739   0.739   1.339   1.486 -1.2880 -0.1924  0.2201
 1202SOL     OW 3740   0.976   3.498   3.684 -0.1647 -0.0108  0.1230
 1202SOL    HW1 3741   0.980   3.571   3.622  0.2428 -0.1821 -0.0557
 1202SOL    HW2 3742   1.050   3.442   3.660 -0.1776 -0.2280  0.5789
 1203SOL     OW 3743   0.778   1.247   3.887  0.4919 -0.1403 -0.5927
 1203SOL    HW1 3744   0.838   1.315   3.856  0.6468  0.1267  0.2647
 1203SOL    HW2 3745   0.755   1.275   3.976  1.4361 -1.8023  0.2085
 1204SOL     OW 3746   1.557   3.030   0.819 -0.2986  0.1258 -0.1114
 1204SOL    HW1 3747   1.605   3.052   0.739  1.6697 -1.8928  0.4013
 1204SOL    HW2 3748   1.510   3.110   0.842  1.7870  1.8309 -1.4268
 1205SOL     OW 3749   4.956   3.970   2.574 -0.1932  0.1820 -0.1394
 1205SOL    HW1 3750   4.925   4.031   2.642  0.3909  1.0217 -0.6045
 1205SOL    HW2 3751   5.042   3.943   2.606 -0.8444 -1.1864  0.5450
 1206SOL     OW 3752   1.188   3.801   2.633  0.5162  0.1434  0.6348
 1206SOL    HW1 3753   1.249   3.870   2.658 -1.6511  2.5880 -0.3894
 1206SOL    HW2 3754   1.215   3.776   2.545  0.5971  0.4987  0.5593
 1207SOL     OW 3755   4.614   2.822   2.231 -0.2472  0.2774  0.1053
 1207SOL    HW1 3756   4.547   2.815   2.163 -1.3837  2.1634  0.9684
 1207SOL    HW2 3757   4.687   2.866   2.187  0.6597 -2.0835 -0.9315
 1208SOL     OW 3758   1.583   0.062   0.936  0.2388  0.0994 -0.5128
 1208SOL    HW1 3759   1.507   0.058   0.877  1.3876 -0.9461 -2.0047
 1208SOL    HW2 3760   1.657   0.037   0.881  1.3177 -1.4573  1.5272
 1209SOL     OW 3761   1.403   1.952   2.973  0.6042  0.0590 -0.3872
 1209SOL    HW1 3762   1.331   2.015   2.974  1.5348  1.1888  0.9558
 1209SOL    HW2 3763   1.415   1.929   2.881  0.1042  1.7286 -0.9018
 1210SOL     OW 3764   0.713   0.202   0.038 -0.0135  0.2754 -0.3285
 1210SOL    HW1 3765   0.671   0.116   0.044 -0.6767  0.4952 -1.4997
 1210SOL    HW2 3766   0.804   0.186   0.064 -0.4272 -0.5141  0.7392
 1211SOL     OW 3767   2.424   4.253   3.742  0.3355  0.3091  0.1601
 1211SOL    HW1 3768   2.386   4.316   3.681  1.4114 -0.3099 -1.1895
 1211SOL    HW2 3769   2.349   4.217   3.790 -0.4054  1.6760  0.0648
 1212SOL     OW 3770   0.250   1.130   0.509  0.4026  0.3589  0.4678
 1212SOL    HW1 3771   0.161   1.093   0.506  0.7038 -0.3096 -1.2730
 1212SOL    HW2 3772   0.294   1.078   0.576 -0.3049  0.2122  0.8373
 1213SOL     OW 3773   0.548   4.184   3.664  0.1560 -0.0092  0.3411
 1213SOL    HW1 3774   0.539   4.127   3.588  1.1987  1.3850 -0.8753
 1213SOL    HW2 3775   0.458   4.201   3.692 -0.2068 -1.2425 -0.0113
 1214SOL     OW 3776   4.582   2.360   0.335  0.4935  0.3057 -0.2535
 1214SOL    HW1 3777   4.565   2.268   0.356  0.7822  0.3783  0.3096
 1214SOL    HW2 3778   4.618   2.357   0.246 -1.6983  0.0835 -1.2185
 1215SOL     OW 3779   3.965   4.791   2.947 -0.1321  0.4010  0.7174
 1215SOL    HW1 3780   4.043   4.846   2.943  1.0233 -1.0786  1.6226
 1215SOL    HW2 3781   3.947   4.767   2.856 -1.0905  2.7349  0.2056
 1216SOL     OW 3782   3.774   3.635   2.340 -0.0716 -0.2975 -0.7056
 1216SOL    HW1 3783   3.749   3.561   2.395 -0.1073 -0.2398 -0.6425
 1216SOL    HW2 3784   3.691   3.675   2.315 -0.0845 -0.7295 -1.3747
 1217SOL     OW 3785   1.622   0.579   2.637  0.2847  0.2965  0.1378
 1217SOL    HW1 3786   1.637   0.485   2.647  1.6839  0.5334  0.4906
 1217SOL    HW2 3787   1.576   0.605   2.717 -0.3226 -0.1167 -0.0680
 1218SOL     OW 3788   1.459   3.138   3.842  0.1794  0.2376 -0.0300
 1218SOL    HW1 3789   1.552   3.135   3.864 -0.3754 -0.1364  2.6752
 1218SOL    HW2 3790   1.429   3.222   3.876 -0.2510  1.0065 -2.1634
 1219SOL     OW 3791   2.600   4.039   3.658  0.2536 -0.4732 -0.3544
 1219SOL    HW1 3792   2.573   4.123   3.694  0.2235  0.2647 -2.0118
 1219SOL    HW2 3793   2.685   4.021   3.699  0.1391  0.2258  0.2039
 1220SOL     OW 3794   0.725   4.914   2.195  0.3086  0.0130  1.2020
 1220SOL    HW1 3795   0.778   4.992   2.175 -2.1700  2.1184  2.1908
 1220SOL    HW2 3796   0.689   4.887   2.111  0.7772  0.2826  0.9120
 1221SOL     OW 3797   0.906   4.102   3.876  0.4581  0.4171  0.3139
 1221SOL    HW1 3798   0.977   4.165   3.888  1.6465 -0.9378  0.7427
 1221SOL    HW2 3799   0.826   4.151   3.894  1.3551  1.7249  0.8518
 1222SOL     OW 3800   2.159   3.849   2.319 -0.6918  0.8609 -0.0157
 1222SOL    HW1 3801   2.206   3.917   2.367  0.2179  0.0206  0.3114
 1222SOL    HW2 3802   2.219   3.774   2.317 -1.4585  0.2374 -0.8257
 1223SOL     OW 3803   2.057   0.360   1.268  0.0478  0.1567  0.5484
 1223SOL    HW1 3804   2.055   0.309   1.349 -0.8360  2.0648  1.7947
 1223SOL    HW2 3805   1.995   0.315   1.210  0.8384 -1.3434  0.8142
 1224SOL     OW 3806   1.819   3.604   0.394 -0.0899 -0.1190 -0.3590
 1224SOL    HW1 3807   1.820   3.607   0.298  1.1124 -1.7104 -0.4344
 1224SOL    HW2 3808   1.735   3.565   0.416 -0.2730  0.0399 -0.7594
 1225SOL     OW 3809   2.601   2.513   0.153 -0.1837  0.2509 -0.0789
 1225SOL    HW1 3810   2.607   2.593   0.205  0.4221  0.7204 -0.8496
 1225SOL    HW2 3811   2.644   2.534   0.071  1.2968 -1.3064  0.2211
 1226SOL     OW 3812   0.151   3.633   2.873  0.4976  0.4000 -1.1115
 1226SOL    HW1 3813   0.085   3.676   2.928  1.1078  0.7423 -0.6226
 1226SOL    HW2 3814   0.109   3.552   2.844  0.6810 -0.6260  1.2062
 1227SOL     OW 3815   4.678   2.532   0.577  0.3620 -0.2619  0.6917
 1227SOL    HW1 3816   4.656   2.459   0.519  0.8465 -0.5924  0.9149
 1227SOL    HW2 3817   4.595   2.557   0.618 -0.0284  0.1292 -0.3099
 1228SOL     OW 3818   2.820   1.329   3.073  0.5237 -0.2081  0.0105
 1228SOL    HW1 3819   2.817   1.281   3.156  1.0718 -0.7149 -0.2607
 1228SOL    HW2 3820   2.736   1.376   3.070 -0.2080 -1.4626  0.0804
 1229SOL     OW 3821   3.708   4.418   4.671  0.1476 -0.1923  0.3610
 1229SOL    HW1 3822   3.795   4.422   4.710  0.6185 -0.4186 -0.6437
 1229SOL    HW2 3823   3.672   4.506   4.683  0.7480  0.0677  0.2466
 1230SOL     OW 3824   0.827   1.710   2.908 -0.1287 -0.0619  0.7433
 1230SOL    HW1 3825   0.780   1.700   2.826 -1.4297  1.1559  1.2971
 1230SOL    HW2 3826   0.902   1.765   2.887  0.4643 -1.1031  0.0692
 1231SOL     OW 3827   3.733   0.557   0.225 -0.0741 -0.4835  0.1113
 1231SOL    HW1 3828   3.713   0.643   0.261 -0.9491 -0.4372 -0.4461
 1231SOL    HW2 3829   3.691   0.556   0.139 -0.0180 -1.4347  0.0799
 1232SOL     OW 3830   1.253   4.056   4.276  0.3686  0.5462  0.0325
 1232SOL    HW1 3831   1.244   3.961   4.283  2.5721  0.3855  1.9199
 1232SOL    HW2 3832   1.294   4.069   4.190 -0.6710 -0.1033 -0.5893
 1233SOL     OW 3833   1.015   1.363   4.259 -0.7557  0.4215  0.1027
 1233SOL    HW1 3834   1.099   1.396   4.226 -0.1430 -2.2145 -1.2428
 1233SOL    HW2 3835   1.001   1.411   4.341  2.6491  0.1630  1.0042
 1234SOL     OW 3836   1.578   1.028   0.423 -0.1686 -0.1450 -0.7377
 1234SOL    HW1 3837   1.488   1.043   0.453 -0.6279 -0.0602 -2.0908
 1234SOL    HW2 3838   1.578   0.937   0.394  1.0739 -1.2022  2.1683
 1235SOL     OW 3839   2.422   1.687   3.190  0.2344  0.1968 -0.2762
 1235SOL    HW1 3840   2.500   1.682   3.246 -1.3932  0.2909  2.1463
 1235SOL    HW2 3841   2.351   1.713   3.249 -1.7077 -0.0835 -2.3359
 1236SOL     OW 3842   3.494   2.562   0.741 -0.0159 -0.0628 -0.5117
 1236SOL    HW1 3843   3.553   2.631   0.770 -0.6472 -0.1891  1.2265
 1236SOL    HW2 3844   3.501   2.495   0.809 -2.7368  0.2925  0.2373
 1237SOL     OW 3845   2.985   3.159   0.070  0.7580  0.3742 -0.2549
 1237SOL    HW1 3846   2.981   3.128  -0.020 -0.0478 -0.9084  0.2005
 1237SOL    HW2 3847   3.071   3.201   0.077  1.4266 -0.7695 -1.2283
 1238SOL     OW 3848   2.136   1.557   2.798 -0.1763  1.0336 -0.3406
 1238SOL    HW1 3849   2.164   1.521   2.714 -0.5499 -0.2674  0.0754
 1238SOL    HW2 3850   2.041   1.567   2.790 -0.2436  0.6747  0.0157
 1239SOL     OW 3851   4.282   3.626   4.673 -0.0154 -0.2166 -0.2347
 1239SOL    HW1 3852   4.312   3.692   4.736  0.6845  1.3821 -2.1339
 1239SOL    HW2 3853   4.355   3.617   4.612 -1.0654 -0.8958 -1.4380
 1240SOL     OW 3854   3.451   2.291   2.764  0.1768  0.2414  0.1477
 1240SOL    HW1 3855   3.526   2.249   2.806  0.3782 -0.0198 -0.4643
 1240SOL    HW2 3856   3.392   2.313   2.837  0.0766 -1.0874  0.5055
 1241SOL     OW 3857   1.943   0.912   1.160 -0.1002 -0.1717  0.1584
 1241SOL    HW1 3858   1.883   0.837   1.167  0.0729 -0.3927 -0.5734
 1241SOL    HW2 3859   1.947   0.949   1.248 -0.4404 -0.8350  0.4567
 1242SOL     OW 3860   0.317   4.719   4.083 -0.4056  0.3002 -0.4695
 1242SOL    HW1 3861   0.382   4.652   4.105 -0.9521  0.6310  2.6704
 1242SOL    HW2 3862   0.349   4.759   4.003  1.2600 -2.0126 -1.0632
 1243SOL     OW 3863   4.803   0.953   1.549 -0.5689  0.6775  0.1864
 1243SOL    HW1 3864   4.825   0.868   1.511  1.3635  0.6900  1.1436
 1243SOL    HW2 3865   4.848   1.017   1.493 -0.2061  0.9031  0.7245
 1244SOL     OW 3866   1.715   0.772   1.717 -0.8654 -0.1498  0.1764
 1244SOL    HW1 3867   1.787   0.835   1.712  0.7401 -1.8552  0.9631
 1244SOL    HW2 3868   1.646   0.811   1.663  0.7336  1.3819 -0.8750
 1245SOL     OW 3869   0.345   1.885   3.498  0.1958 -0.8534  1.2265
 1245SOL    HW1 3870   0.400   1.848   3.429  1.8495  0.9773  1.4545
 1245SOL    HW2 3871   0.268   1.918   3.453  0.7678 -0.6294  0.3881
 1246SOL     OW 3872   0.440   0.637   0.430 -0.1725  0.1300  0.1286
 1246SOL    HW1 3873   0.418   0.690   0.507  0.4617  1.2225 -0.4188
 1246SOL    HW2 3874   0.371   0.572   0.426 -2.0646  2.0430 -0.2492
 1247SOL     OW 3875   1.155   4.342   2.609 -0.5394  0.3737  0.1777
 1247SOL    HW1 3876   1.078   4.310   2.655 -0.0187 -1.6169 -0.2458
 1247SOL    HW2 3877   1.221   4.352   2.677 -0.6500  0.3767  0.2850
 1248SOL     OW 3878   1.078   2.069   3.522  0.1391 -0.5215 -1.0577
 1248SOL    HW1 3879   1.032   2.086   3.440 -0.8859  0.5178 -0.2824
 1248SOL    HW2 3880   1.171   2.068   3.497 -0.0122  1.7681 -1.9279
 1249SOL     OW 3881   1.865   2.818   0.411  0.6295  0.3049 -0.9857
 1249SOL    HW1 3882   1.853   2.912   0.426  0.3336  0.3496 -1.4757
 1249SOL    HW2 3883   1.841   2.805   0.320  0.9598 -0.2015 -1.0067
 1250SOL     OW 3884   2.454   2.541   2.926  0.3147  0.5553 -0.3131
 1250SOL    HW1 3885   2.400   2.559   2.849  0.9586  1.4002 -0.5897
 1250SOL    HW2 3886   2.544   2.542   2.893  0.5163 -1.0660  0.0978
 1251SOL     OW 3887   0.057   2.153   4.327 -0.1259  0.6037  0.3507
 1251SOL    HW1 3888   0.137   2.145   4.275 -0.6544  0.2830 -0.4191
 1251SOL    HW2 3889   0.042   2.065   4.362 -0.9364  0.3073 -0.7014
 1252SOL     OW 3890   2.652   1.101   1.087  0.5641 -0.7604 -0.1177
 1252SOL    HW1 3891   2.619   1.058   1.008 -1.4649 -0.8768  0.7370
 1252SOL    HW2 3892   2.643   1.035   1.155 -0.8883  0.3680  0.8501
 1253SOL     OW 3893   1.210   2.760   0.465  0.3653  0.3516 -0.3350
 1253SOL    HW1 3894   1.236   2.672   0.490  0.9411  0.8635  1.0216
 1253SOL    HW2 3895   1.116   2.764   0.482 -0.1123 -0.6285 -2.4795
 1254SOL     OW 3896   2.688   2.399   3.481 -0.4447 -0.1171 -0.0153
 1254SOL    HW1 3897   2.721   2.479   3.440 -0.9590 -0.3413 -0.8977
 1254SOL    HW2 3898   2.617   2.429   3.538  1.0555  0.3429  1.7307
 1255SOL     OW 3899   1.987   1.830   0.587 -0.6835 -0.1051 -0.3894
 1255SOL    HW1 3900   2.044   1.849   0.512 -1.0146  0.9671 -0.3828
 1255SOL    HW2 3901   1.920   1.898   0.584 -2.0109 -1.3627 -0.4157
 1256SOL     OW 3902   2.087   4.143   0.748 -0.0182 -0.5754 -0.1645
 1256SOL    HW1 3903   2.165   4.146   0.693 -1.8264  0.5901 -2.9037
 1256SOL    HW2 3904   2.023   4.095   0.696 -1.4812 -0.6077  1.5486
 1257SOL     OW 3905   2.125   1.746   2.107  0.9027  0.2939  0.4063
 1257SOL    HW1 3906   2.107   1.828   2.153 -1.1597  0.0802  0.0935
 1257SOL    HW2 3907   2.180   1.771   2.033 -1.2373  1.7898 -0.8008
 1258SOL     OW 3908   2.463   4.576   2.230  0.1235  0.4509 -1.0114
 1258SOL    HW1 3909   2.447   4.625   2.149 -1.6533 -1.4477 -1.9059
 1258SOL    HW2 3910   2.380   4.580   2.278  0.6873  0.2889  0.0073
 1259SOL     OW 3911   1.718   4.874   0.798 -0.0086 -0.0168  0.1357
 1259SOL    HW1 3912   1.685   4.878   0.708 -0.1731 -0.9581  0.1454
 1259SOL    HW2 3913   1.810   4.850   0.789  0.6194  2.1940  0.1304
 1260SOL     OW 3914   3.539   2.315   4.814  0.1693 -0.2384  0.0720
 1260SOL    HW1 3915   3.625   2.340   4.847 -0.1743  2.2266 -0.6950
 1260SOL    HW2 3916   3.490   2.289   4.891  0.6221  1.5246  1.0075
 1261SOL     OW 3917   1.849   3.291   0.219 -0.3824  0.1037 -0.6920
 1261SOL    HW1 3918   1.909   3.352   0.176  1.1628 -0.0737  1.0516
 1261SOL    HW2 3919   1.799   3.252   0.147 -1.5206  3.3956 -1.8799
 1262SOL     OW 3920   1.660   4.923   2.664  0.2268  0.7903 -0.0001
 1262SOL    HW1 3921   1.600   4.848   2.671 -0.4220  1.2685 -0.3403
 1262SOL    HW2 3922   1.679   4.929   2.570  1.9975 -0.2614  0.2412
 1263SOL     OW 3923   4.415   4.301   0.256  0.9210 -0.7611  0.3962
 1263SOL    HW1 3924   4.321   4.317   0.243  0.8224 -1.4408  0.2439
 1263SOL    HW2 3925   4.433   4.333   0.344  0.5035 -0.8108  0.5012
 1264SOL     OW 3926   4.084   2.997   4.357 -0.5618  0.3561 -0.2881
 1264SOL    HW1 3927   4.080   3.082   4.313 -4.3474  0.6206  0.1896
 1264SOL    HW2 3928   4.075   3.018   4.450 -1.5504 -0.4980 -0.1654
 1265SOL     OW 3929   2.986   2.596   3.212  0.4996 -0.0212 -0.5913
 1265SOL    HW1 3930   2.996   2.571   3.304 -0.8802  0.7619 -0.1977
 1265SOL    HW2 3931   2.997   2.514   3.164  0.4690 -0.5811  0.3268
 1266SOL     OW 3932   1.792   2.951   4.331  0.4824  0.1180 -0.1405
 1266SOL    HW1 3933   1.789   2.917   4.420  1.3772  0.1564 -0.0930
 1266SOL    HW2 3934   1.820   2.877   4.278  2.0183  0.6417 -0.0973
 1267SOL     OW 3935   2.342   2.068   0.334  0.2265  0.1363 -0.3408
 1267SOL    HW1 3936   2.386   2.139   0.288  1.5959  0.1706  0.9369
 1267SOL    HW2 3937   2.327   2.102   0.422  0.0291 -0.8202  0.0079
 1268SOL     OW 3938   3.447   4.737   1.542  0.2244 -0.1468 -0.9776
 1268SOL    HW1 3939   3.407   4.714   1.626 -0.3918 -2.8358 -1.8985
 1268SOL    HW2 3940   3.534   4.770   1.565  0.6107 -2.1146  0.7030
 1269SOL     OW 3941   0.222   1.264   0.855 -0.3418 -0.2878  0.1376
 1269SOL    HW1 3942   0.240   1.302   0.942  1.6408  0.9257 -0.7287
 1269SOL    HW2 3943   0.213   1.340   0.798  1.7768 -1.0262 -1.3017
 1270SOL     OW 3944   0.107   4.440   3.715  0.8354  0.1753 -0.6606
 1270SOL    HW1 3945   0.030   4.385   3.701 -0.5677  1.7380  0.5869
 1270SOL    HW2 3946   0.076   4.529   3.698  2.3124  0.8588  0.1008
 1271SOL     OW 3947   3.518   4.615   2.313  0.1692  0.0923 -0.1360
 1271SOL    HW1 3948   3.423   4.614   2.299  0.0157  1.2491  0.7600
 1271SOL    HW2 3949   3.548   4.532   2.274 -0.9679  0.4830 -2.0044
 1272SOL     OW 3950   2.824   4.176   4.388 -0.4880 -0.3627 -0.0528
 1272SOL    HW1 3951   2.793   4.190   4.478 -0.9561  0.9205 -0.3899
 1272SOL    HW2 3952   2.807   4.259   4.344  0.1247 -0.8381 -1.2264
 1273SOL     OW 3953   1.788   0.378   4.578  0.3307 -0.5844  0.5889
 1273SOL    HW1 3954   1.793   0.383   4.673  3.2640 -0.8856  0.5291
 1273SOL    HW2 3955   1.877   0.355   4.550 -0.6641 -1.4200 -2.1795
 1274SOL     OW 3956   3.525   3.407   0.119  0.1397 -0.1481 -0.1182
 1274SOL    HW1 3957   3.569   3.481   0.077  0.3744  1.2627  2.4341
 1274SOL    HW2 3958   3.431   3.427   0.111  0.2145  1.1164  1.5665
 1275SOL     OW 3959   4.192   4.931   2.383 -0.0303  0.5656 -0.0410
 1275SOL    HW1 3960   4.209   4.995   2.313  0.3284 -1.4690 -1.9150
 1275SOL    HW2 3961   4.097   4.921   2.384 -0.2774  2.4929  1.6210
 1276SOL     OW 3962   1.322   2.804   0.029 -0.1916 -0.2955 -0.2178
 1276SOL    HW1 3963   1.234   2.821   0.063  0.2801 -0.5263  1.1890
 1276SOL    HW2 3964   1.326   2.708   0.021 -0.1948 -0.2613 -0.6585
 1277SOL     OW 3965   1.747   2.659   1.202  0.2137  0.2492 -0.5479
 1277SOL    HW1 3966   1.775   2.589   1.143  0.5051 -0.3847  0.3206
 1277SOL    HW2 3967   1.719   2.613   1.281 -1.0039  1.0271 -0.5065
 1278SOL     OW 3968   4.838   1.677   0.979 -0.5054 -0.1538 -0.1053
 1278SOL    HW1 3969   4.895   1.636   0.914 -1.1107 -1.0966 -0.0510
 1278SOL    HW2 3970   4.757   1.627   0.976 -0.3183 -0.6556  1.8307
 1279SOL     OW 3971   0.474   2.415   1.050  0.0163  0.5414 -0.1328
 1279SOL    HW1 3972   0.410   2.352   1.085 -0.8003  1.0920 -0.5993
 1279SOL    HW2 3973   0.424   2.495   1.037  0.4109  0.5395 -2.0025
 1280SOL     OW 3974   4.783   2.209   0.852  0.2448 -0.1428 -0.2185
 1280SOL    HW1 3975   4.792   2.290   0.902  0.7287  0.2053 -0.8663
 1280SOL    HW2 3976   4.710   2.164   0.894  1.9553 -0.8897  2.2126
 1281SOL     OW 3977   0.294   4.939   4.226  0.1294  0.4583 -0.2121
 1281SOL    HW1 3978   0.277   4.863   4.170  0.2512 -0.6551  1.2133
 1281SOL    HW2 3979   0.387   4.933   4.248 -0.2598 -0.0938  1.4373
 1282SOL     OW 3980   2.318   4.235   4.256 -0.2226  0.1963  0.2559
 1282SOL    HW1 3981   2.320   4.214   4.349 -0.0314  0.4600  0.3097
 1282SOL    HW2 3982   2.402   4.204   4.222  0.6029  1.9874  0.5752
 1283SOL     OW 3983   2.468   3.308   4.724  0.1968  0.5803 -0.7397
 1283SOL    HW1 3984   2.395   3.338   4.779  0.5317 -0.5600  0.3937
 1283SOL    HW2 3985   2.438   3.225   4.687  0.8505  0.1695 -0.3763
 1284SOL     OW 3986   3.905   4.621   4.383 -0.0888 -0.0875 -0.6988
 1284SOL    HW1 3987   3.876   4.701   4.339  0.8525  0.5449 -0.2142
 1284SOL    HW2 3988   3.970   4.651   4.446 -0.3719 -1.1383  0.1318
 1285SOL     OW 3989   4.898   2.944   1.119 -0.2627  0.2318 -0.4903
 1285SOL    HW1 3990   4.820   2.895   1.091  0.2023 -0.0046 -1.4429
 1285SOL    HW2 3991   4.900   2.934   1.214 -0.4263 -1.2365 -0.6210
 1286SOL     OW 3992   4.708   2.431   4.911  0.3461  0.4947 -0.1857
 1286SOL    HW1 3993   4.770   2.368   4.872 -1.3244 -2.2303  1.2302
 1286SOL    HW2 3994   4.625   2.413   4.867 -0.2125  1.6376  0.3682
 1287SOL     OW 3995   1.090   0.997   0.472 -0.6664  0.4102 -0.6636
 1287SOL    HW1 3996   1.167   0.960   0.428 -0.1598  2.6127 -1.8425
 1287SOL    HW2 3997   1.092   0.960   0.560  1.3574 -0.1475 -0.8836
 1288SOL     OW 3998   4.674   2.625   3.913 -0.2358 -0.3069 -0.1023
 1288SOL    HW1 3999   4.658   2.582   3.997  0.4911 -2.5277 -1.0031
 1288SOL    HW2 4000   4.743   2.572   3.872 -1.1940  0.1165 -2.4544
 1289SOL     OW 4001   1.662   0.986   0.952  0.0190  1.0137  0.0422
 1289SOL    HW1 4002   1.628   1.063   0.906 -2.8768 -0.8535 -1.2349
 1289SOL    HW2 4003   1.711   0.938   0.886  1.0851  1.3045  0.6038
 1290SOL     OW 4004   0.606   0.740   0.167  0.2961  0.7173 -0.0556
 1290SOL    HW1 4005   0.616   0.651   0.199 -1.0026  1.5516  3.0176
 1290SOL    HW2 4006   0.517   0.744   0.133 -0.8590  1.5138  2.7491
 1291SOL     OW 4007   4.181   0.825   1.000 -0.4865 -0.3513  0.4071
 1291SOL    HW1 4008   4.116   0.840   0.931 -0.0000  0.8226  0.1796
 1291SOL    HW2 4009   4.165   0.735   1.028 -1.5122 -0.4397 -0.3744
 1292SOL     OW 4010   4.649   0.015   1.329 -0.0192  0.0370  0.4738
 1292SOL    HW1 4011   4.639   0.107   1.351  1.5873  1.6487 -4.2168
 1292SOL    HW2 4012   4.721  -0.016   1.385  1.3339  2.5378  0.2599
 1293SOL     OW 4013   4.014   2.310   2.130 -0.1949 -0.1421 -0.3793
 1293SOL    HW1 4014   4.022   2.287   2.038 -1.2783 -2.1171 -0.0393
 1293SOL    HW2 4015   3.953   2.245   2.166 -1.8855  2.1150  1.1703
 1294SOL     OW 4016   1.373   4.808   1.542 -0.0901 -0.7404  0.6093
 1294SOL    HW1 4017   1.430   4.827   1.467  0.2031 -0.7638  0.8275
 1294SOL    HW2 4018   1.332   4.724   1.520 -1.8896  0.3715 -0.6736
 1295SOL     OW 4019   0.968   3.570   2.463 -0.1736  0.3735  0.1864
 1295SOL    HW1 4020   1.031   3.612   2.523  0.5298  2.0256 -1.5856
 1295SOL    HW2 4021   1.010   3.489   2.436  0.5392  0.7393  0.1780
 1296SOL     OW 4022   4.649   0.963   1.128 -0.9070 -0.1690 -0.1535
 1296SOL    HW1 4023   4.596   0.896   1.085 -0.3340 -0.6190 -0.1677
 1296SOL    HW2 4024   4.630   0.952   1.221 -0.5989 -0.5408 -0.1331
 1297SOL     OW 4025   2.860   3.156   4.534  0.3572  0.3308  0.5413
 1297SOL    HW1 4026   2.776   3.110   4.538 -0.0206  1.0750  1.8944
 1297SOL    HW2 4027   2.857   3.218   4.607  1.2646  1.7914 -0.5965
 1298SOL     OW 4028   2.842   4.501   2.836  0.5880 -0.3900  0.6180
 1298SOL    HW1 4029   2.824   4.595   2.834  0.1494 -0.4821  0.0368
 1298SOL    HW2 4030   2.862   4.479   2.745 -1.7942 -1.3291  0.2580
 1299SOL     OW 4031   1.965   4.709   3.922  0.1981 -0.5969 -0.3117
 1299SOL    HW1 4032   1.903   4.638   3.910  0.7617 -0.7828 -2.8191
 1299SOL    HW2 4033   2.051   4.666   3.925  0.8771 -0.0865 -5.0493
 1300SOL     OW 4034   4.468   3.806   0.023 -0.1786  0.4589  0.1378
 1300SOL    HW1 4035   4.508   3.828   0.107  2.5552  0.6973 -1.1047
 1300SOL    HW2 4036   4.493   3.879  -0.034  0.2309 -0.8925 -1.4818
 1301SOL     OW 4037   1.108   1.996   4.183  0.6235 -0.0141  0.1051
 1301SOL    HW1 4038   1.186   2.048   4.168  0.6069  0.0667  0.2965
 1301SOL    HW2 4039   1.068   1.987   4.096  1.9768 -1.8698 -0.3908
 1302SOL     OW 4040   1.364   3.370   4.208  0.9560 -0.5280  0.4618
 1302SOL    HW1 4041   1.331   3.446   4.257 -2.4491 -1.7269  0.3044
 1302SOL    HW2 4042   1.407   3.317   4.275 -0.2416 -0.3429  1.4232
 1303SOL     OW 4043   0.426   0.681   2.314 -0.2128  0.3295 -0.3378
 1303SOL    HW1 4044   0.482   0.757   2.301 -0.1915  0.0770 -1.8666
 1303SOL    HW2 4045   0.471   0.610   2.270 -1.6778  0.1092 -1.5782
 1304SOL     OW 4046   0.191   0.176   4.806 -0.0577  0.3903 -0.0905
 1304SOL    HW1 4047   0.197   0.215   4.893 -0.7533 -1.5914  0.9149
 1304SOL    HW2 4048   0.097   0.163   4.792  0.1605 -2.3288  0.3797
 1305SOL     OW 4049   4.580   0.024   2.114 -0.2442 -1.0005 -0.0891
 1305SOL    HW1 4050   4.626  -0.057   2.093  1.2427 -0.2359  0.0863
 1305SOL    HW2 4051   4.621   0.053   2.196  0.3767  0.7471 -0.9867
 1306SOL     OW 4052   1.541   0.087   2.176 -0.0985 -0.0036 -0.1362
 1306SOL    HW1 4053   1.532   0.169   2.225  0.1648  0.1055 -0.2702
 1306SOL    HW2 4054   1.454   0.046   2.182 -0.3439  0.4735 -0.4051
 1307SOL     OW 4055   3.469   1.762   1.436 -0.2036 -0.3203 -0.0307
 1307SOL    HW1 4056   3.526   1.822   1.388  2.2022  0.9222  3.8629
 1307SOL    HW2 4057   3.381   1.799   1.425  0.2089 -0.0061 -3.0561
 1308SOL     OW 4058   2.114   3.085   4.058 -0.2096  0.3146  0.1428
 1308SOL    HW1 4059   2.120   3.045   3.972 -0.4554  2.3869 -0.8919
 1308SOL    HW2 4060   2.056   3.160   4.046 -0.0312  0.8111  2.0454
 1309SOL     OW 4061   4.511   0.260   1.368 -0.2792 -0.3425  0.8908
 1309SOL    HW1 4062   4.512   0.277   1.462 -0.3608 -0.9212  0.9997
 1309SOL    HW2 4063   4.487   0.344   1.329 -2.4815 -0.6134  1.5255
 1310SOL     OW 4064   1.205   2.806   2.599  0.2098 -0.2465 -0.2476
 1310SOL    HW1 4065   1.239   2.800   2.688  0.1792  0.4650 -0.1829
 1310SOL    HW2 4066   1.243   2.731   2.554  0.7685 -0.2302  0.1829
 1311SOL     OW 4067   4.769   4.452   1.841 -0.0432 -0.4862 -0.0162
 1311SOL    HW1 4068   4.684   4.408   1.846  0.0148 -1.0380 -2.5798
 1311SOL    HW2 4069   4.822   4.411   1.909 -1.4240 -1.0283  0.7620
 1312SOL     OW 4070   1.562   3.997   1.841 -0.5522  0.0907 -0.1791
 1312SOL    HW1 4071   1.636   3.959   1.889  0.8128 -1.5519 -3.2281
 1312SOL    HW2 4072   1.485   3.966   1.887  0.6031  0.5901  2.2405
 1313SOL     OW 4073   0.994   2.668   2.952  0.0996 -0.4145  0.4539
 1313SOL    HW1 4074   1.080   2.690   2.914  0.6736 -2.3482  0.5102
 1313SOL    HW2 4075   0.939   2.743   2.930  1.2568 -0.0200 -1.4024
 1314SOL     OW 4076   0.509   0.574   2.785  0.0329  0.3985 -0.6503
 1314SOL    HW1 4077   0.515   0.606   2.875  0.8301  0.4567 -0.7165
 1314SOL    HW2 4078   0.593   0.597   2.745  0.2413 -0.8756 -1.0018
 1315SOL     OW 4079   4.263   2.418   2.950  0.1629  1.2965 -0.3882
 1315SOL    HW1 4080   4.319   2.355   2.905 -0.0121  0.0465  1.0243
 1315SOL    HW2 4081   4.176   2.405   2.912  0.2144  0.9821 -0.3998
 1316SOL     OW 4082   2.127   0.721   3.814 -0.2053  0.2753  0.4247
 1316SOL    HW1 4083   2.094   0.712   3.903 -0.7054  2.6407  0.5412
 1316SOL    HW2 4084   2.101   0.809   3.787 -0.2713 -0.4312 -2.1626
 1317SOL     OW 4085   3.657   0.897   2.383 -0.1855 -0.1498 -0.2928
 1317SOL    HW1 4086   3.659   0.855   2.469  2.7240  1.7075  0.7189
 1317SOL    HW2 4087   3.570   0.935   2.377 -0.3945 -0.1167  1.9843
 1318SOL     OW 4088   4.038   1.388   1.214  0.4787  0.0587  0.4031
 1318SOL    HW1 4089   4.088   1.356   1.289 -0.4027  1.0987  1.4943
 1318SOL    HW2 4090   3.965   1.327   1.205 -0.2410  0.7359  1.3793
 1319SOL     OW 4091   2.433  -0.008   1.959  0.4486 -0.0441 -0.5140
 1319SOL    HW1 4092   2.511   0.022   2.006  1.0897  1.9211 -2.6607
 1319SOL    HW2 4093   2.404   0.069   1.910 -2.5544 -0.8785 -0.2260
 1320SOL     OW 4094   1.820   0.158   2.662 -0.0154 -0.5125 -0.1431
 1320SOL    HW1 4095   1.910   0.129   2.677 -0.1518 -0.9178 -0.1188
 1320SOL    HW2 4096   1.766   0.082   2.684 -0.4376  0.0629  0.9089
 1321SOL     OW 4097   0.714   0.035   3.989 -0.3211 -0.3612  0.0497
 1321SOL    HW1 4098   0.674   0.075   4.066 -1.8664 -1.1940 -0.2615
 1321SOL    HW2 4099   0.777   0.099   3.958 -1.9155  1.3709  0.1943
 1322SOL     OW 4100   2.967   2.789   2.045 -0.0935 -1.0429  0.7754
 1322SOL    HW1 4101   2.970   2.848   1.970  1.6791 -1.9173  0.1052
 1322SOL    HW2 4102   2.898   2.825   2.102 -1.6391 -0.4695 -1.3395
 1323SOL     OW 4103   1.396   4.390   4.698  0.0558  0.1757 -0.1702
 1323SOL    HW1 4104   1.436   4.422   4.778  0.6033 -1.0237  0.0651
 1323SOL    HW2 4105   1.409   4.460   4.634  2.6678 -0.1894 -0.1450
 1324SOL     OW 4106   3.081   0.226   0.277  0.0791 -0.7573 -0.1662
 1324SOL    HW1 4107   3.017   0.186   0.218 -0.1770 -0.7125  0.0760
 1324SOL    HW2 4108   3.166   0.208   0.237 -0.1334 -0.0087 -0.9932
 1325SOL     OW 4109   4.717   2.122   4.940  0.3592 -0.4771  0.8401
 1325SOL    HW1 4110   4.675   2.111   5.025 -0.9032  1.4142  0.5173
 1325SOL    HW2 4111   4.805   2.153   4.960  1.5050 -3.7057  1.4975
 1326SOL     OW 4112   2.475   4.554   3.007 -0.0043  0.0543 -0.4099
 1326SOL    HW1 4113   2.382   4.532   3.013 -0.4259  1.1830 -2.1489
 1326SOL    HW2 4114   2.480   4.646   3.033  0.4805  0.2612 -1.2092
 1327SOL     OW 4115   4.166   4.471   0.206 -0.2870 -0.3074  0.5176
 1327SOL    HW1 4116   4.207   4.519   0.278  0.6530 -0.4453  0.0805
 1327SOL    HW2 4117   4.167   4.533   0.133  1.5880 -1.1821 -0.2659
 1328SOL     OW 4118   3.048   0.662   3.528 -0.2363 -0.4289 -0.5165
 1328SOL    HW1 4119   2.975   0.722   3.544  0.0798 -0.3756  0.8220
 1328SOL    HW2 4120   3.118   0.719   3.495 -0.0694 -0.1132  0.3601
 1329SOL     OW 4121   3.553   1.821   2.414 -0.0587  0.4053  0.1641
 1329SOL    HW1 4122   3.636   1.854   2.380  0.0201  0.3213  0.2722
 1329SOL    HW2 4123   3.540   1.867   2.497 -0.5989  1.1272 -0.3088
 1330SOL     OW 4124   1.516   1.270   4.920  0.0587 -0.2810 -0.4511
 1330SOL    HW1 4125   1.593   1.244   4.971 -0.7308 -0.1512  0.8384
 1330SOL    HW2 4126   1.454   1.198   4.933 -1.1983  1.0186  1.1008
 1331SOL     OW 4127   3.866   4.134   4.013  0.0826  1.0317 -0.4813
 1331SOL    HW1 4128   3.877   4.113   4.106  2.8391  2.7198 -0.3203
 1331SOL    HW2 4129   3.772   4.147   4.003 -0.4895 -0.7566  1.6673
 1332SOL     OW 4130   1.303   4.511   3.243  0.4880 -0.2701 -0.2800
 1332SOL    HW1 4131   1.260   4.478   3.322  2.0777 -1.6731  0.0492
 1332SOL    HW2 4132   1.258   4.467   3.172  0.4252 -0.6195 -0.0272
 1333SOL     OW 4133   3.169   1.892   0.400  0.1448  0.1212 -0.2740
 1333SOL    HW1 4134   3.102   1.953   0.369 -0.1880 -0.2498 -0.3036
 1333SOL    HW2 4135   3.164   1.819   0.339 -0.7955 -0.8084  0.8488
 1334SOL     OW 4136   3.238   2.518   1.980 -0.4834 -0.2306 -0.4650
 1334SOL    HW1 4137   3.265   2.431   1.951  0.6496  0.1973 -0.7609
 1334SOL    HW2 4138   3.142   2.516   1.977 -0.4969 -1.6910  0.2504
 1335SOL     OW 4139   0.154   2.283   3.826 -0.2274 -0.2205 -0.4575
 1335SOL    HW1 4140   0.215   2.213   3.803  0.0360  0.7639 -3.0552
 1335SOL    HW2 4141   0.082   2.273   3.764 -1.8843 -0.1991  1.3463
 1336SOL     OW 4142  -0.011   0.479   0.383 -0.3837  0.2065 -0.3719
 1336SOL    HW1 4143  -0.036   0.470   0.291 -0.4383  2.5485 -0.6544
 1336SOL    HW2 4144   0.066   0.537   0.381 -0.0465 -0.1685  1.0301
 1337SOL     OW 4145   3.373   4.531   0.779 -0.6505 -0.2040 -0.1988
 1337SOL    HW1 4146   3.397   4.589   0.852  0.5871 -0.7313 -0.1632
 1337SOL    HW2 4147   3.278   4.524   0.784 -0.5399 -0.9967  1.9760
 1338SOL     OW 4148   2.457   2.606   0.516  0.6640  0.5166  0.8805
 1338SOL    HW1 4149   2.524   2.580   0.580  1.4254 -1.6120 -0.6434
 1338SOL    HW2 4150   2.507   2.635   0.440 -0.1069 -0.8342 -0.1800
 1339SOL     OW 4151   0.844   0.180   2.125  0.0263 -0.3153  0.5081
 1339SOL    HW1 4152   0.834   0.275   2.130 -3.5126 -0.5873  0.9580
 1339SOL    HW2 4153   0.850   0.161   2.031  2.6269  0.3722  0.4542
 1340SOL     OW 4154   1.247   0.680   0.821 -0.1506 -0.0670  0.5512
 1340SOL    HW1 4155   1.277   0.642   0.904 -1.4977 -1.1246  0.5899
 1340SOL    HW2 4156   1.295   0.633   0.753  3.1015  2.6697  0.6566
 1341SOL     OW 4157   4.569   2.158   1.866  0.2344  0.2987 -0.4487
 1341SOL    HW1 4158   4.657   2.125   1.844 -0.7375 -1.5856 -1.8442
 1341SOL    HW2 4159   4.585   2.227   1.930  2.7584  0.2902 -0.9374
 1342SOL     OW 4160   2.964   3.958   2.397 -0.2406 -0.2553  0.0976
 1342SOL    HW1 4161   2.917   4.025   2.348 -0.9432 -0.8137 -0.0013
 1342SOL    HW2 4162   3.005   4.006   2.469  0.9173  0.6008 -1.0804
 1343SOL     OW 4163   0.801   1.308  -0.008 -0.1289 -0.1613 -0.4896
 1343SOL    HW1 4164   0.887   1.348   0.008  0.6443 -1.6545 -0.8002
 1343SOL    HW2 4165   0.762   1.301   0.079 -0.5474  1.7852 -0.4734
 1344SOL     OW 4166   4.410   4.585   3.968  0.1507 -0.4582 -0.0443
 1344SOL    HW1 4167   4.439   4.605   3.879 -0.6684  0.6971 -0.0720
 1344SOL    HW2 4168   4.465   4.639   4.024  0.1509 -0.6088  0.1011
 1345SOL     OW 4169   2.076   1.426   2.445 -0.0139  0.1232 -0.1419
 1345SOL    HW1 4170   2.016   1.475   2.389 -0.2467  0.4145  0.3679
 1345SOL    HW2 4171   2.021   1.364   2.492 -0.2168  1.6400  1.7309
 1346SOL     OW 4172   1.822   0.957   0.275 -0.4532  0.2141  0.4125
 1346SOL    HW1 4173   1.875   1.006   0.213 -0.0815 -1.4899 -0.7090
 1346SOL    HW2 4174   1.771   1.023   0.322  1.7878  1.8292  0.7435
 1347SOL     OW 4175   2.543   0.930   4.188 -0.5709 -0.0338 -0.0297
 1347SOL    HW1 4176   2.592   1.000   4.143 -0.2198 -0.1387  0.1857
 1347SOL    HW2 4177   2.602   0.901   4.258 -0.4865 -0.9222 -0.4579
 1348SOL     OW 4178   3.789   4.480   3.941 -0.2727  0.1079  0.8941
 1348SOL    HW1 4179   3.852   4.547   3.967  0.1196 -0.8357  2.5779
 1348SOL    HW2 4180   3.712   4.498   3.995 -0.8570  0.2801  0.0197
 1349SOL     OW 4181   2.066   4.334   0.965  0.1139 -0.4385  0.3553
 1349SOL    HW1 4182   2.107   4.406   0.918 -2.2249  0.7993  0.0563
 1349SOL    HW2 4183   2.095   4.256   0.918  3.0201  0.1709  0.9331
 1350SOL     OW 4184   4.920   3.300   4.727  0.4084 -0.6016  0.4207
 1350SOL    HW1 4185   4.868   3.318   4.649 -1.1802 -1.1806  1.3070
 1350SOL    HW2 4186   4.965   3.218   4.707  0.7474 -0.2628 -0.2312
 1351SOL     OW 4187   0.803   0.718   0.363  0.3769  0.0353 -0.4593
 1351SOL    HW1 4188   0.862   0.742   0.291  0.5543  0.6528 -0.1142
 1351SOL    HW2 4189   0.717   0.746   0.333  0.2810 -0.6656 -0.8700
 1352SOL     OW 4190   0.444   2.330   3.454 -0.4441  0.0909  0.3990
 1352SOL    HW1 4191   0.458   2.384   3.377 -0.4268  1.5346  1.3697
 1352SOL    HW2 4192   0.349   2.319   3.459 -0.5869  1.3859  1.0403
 1353SOL     OW 4193   4.870   0.896   0.962  0.1868  0.1406 -0.1499
 1353SOL    HW1 4194   4.789   0.927   1.003  0.2335  1.6493 -1.1434
 1353SOL    HW2 4195   4.841   0.839   0.891  0.0419 -0.3830  0.3242
 1354SOL     OW 4196   1.410   0.085   2.499 -0.1465  0.7566 -0.2999
 1354SOL    HW1 4197   1.490   0.068   2.450  1.2088  1.9008  1.3887
 1354SOL    HW2 4198   1.351   0.127   2.435  1.0533  1.0235 -1.2648
 1355SOL     OW 4199   1.359   2.468   1.314 -0.1253 -0.4262  0.1150
 1355SOL    HW1 4200   1.374   2.507   1.228 -0.0104 -0.5898  0.0607
 1355SOL    HW2 4201   1.382   2.376   1.303  3.3388  0.1585  1.1870
 1356SOL     OW 4202   2.710   2.345   2.458 -0.6339  0.0984 -0.5242
 1356SOL    HW1 4203   2.783   2.395   2.493 -0.3753 -0.5884 -0.0630
 1356SOL    HW2 4204   2.658   2.321   2.534 -0.6687 -0.4670 -0.7189
 1357SOL     OW 4205   0.726   3.285   2.841 -0.2842 -0.3755  0.6323
 1357SOL    HW1 4206   0.727   3.337   2.761  0.0925 -0.1619  0.7737
 1357SOL    HW2 4207   0.816   3.291   2.875 -0.3413 -0.7826  0.8637
 1358SOL     OW 4208   2.386   0.765   1.866  0.3689 -0.0100 -0.6805
 1358SOL    HW1 4209   2.293   0.784   1.856 -0.0483 -0.6246  1.6035
 1358SOL    HW2 4210   2.419   0.834   1.924  0.7330 -1.2070  0.5980
 1359SOL     OW 4211   0.164   1.440   4.809 -0.2985  0.0246  0.6147
 1359SOL    HW1 4212   0.103   1.388   4.860  0.1046  0.9172  2.0594
 1359SOL    HW2 4213   0.110   1.509   4.769 -0.7371 -1.1110 -0.8428
 1360SOL     OW 4214   3.832   1.909   2.149  0.1084  0.6787  0.0982
 1360SOL    HW1 4215   3.927   1.915   2.153  0.1155  0.7386 -0.1358
 1360SOL    HW2 4216   3.804   1.894   2.240  0.3513  0.4857  0.1407
 1361SOL     OW 4217   2.308   4.975   3.966 -0.0733 -0.3749  0.0392
 1361SOL    HW1 4218   2.395   4.963   4.003 -0.2629 -2.5600 -0.1015
 1361SOL    HW2 4219   2.281   4.888   3.939 -1.7346  0.4709 -1.2513
 1362SOL     OW 4220   1.561   3.086   1.920  0.4837  0.0390 -0.3262
 1362SOL    HW1 4221   1.538   3.012   1.976  2.6889 -0.2690  0.2576
 1362SOL    HW2 4222   1.604   3.047   1.844  0.9529  0.6854 -0.3975
 1363SOL     OW 4223   0.619   2.434   3.623  0.5178 -0.6577  0.4457
 1363SOL    HW1 4224   0.558   2.371   3.585  2.1407 -1.8936 -0.2352
 1363SOL    HW2 4225   0.588   2.448   3.712 -1.0698 -0.7879 -0.0660
 1364SOL     OW 4226   2.175   0.144   4.843  0.4279 -0.3637  0.0365
 1364SOL    HW1 4227   2.207   0.074   4.899  1.0976  2.1498  3.0635
 1364SOL    HW2 4228   2.250   0.167   4.788 -0.4821 -3.4216 -2.8328
 1365SOL     OW 4229   0.955   1.553   3.653  0.4523 -0.3286  0.5160
 1365SOL    HW1 4230   0.982   1.491   3.721  1.2630 -0.3041  0.2226
 1365SOL    HW2 4231   1.037   1.591   3.621  0.0457 -0.0181 -0.1780
 1366SOL     OW 4232   4.631   1.477   2.822 -0.5083 -0.2496 -0.1919
 1366SOL    HW1 4233   4.708   1.527   2.797 -0.0075 -0.6485  0.4934
 1366SOL    HW2 4234   4.666   1.394   2.855 -1.1070  0.1462  1.5638
 1367SOL     OW 4235   2.315   0.439   4.075 -0.3790  0.0963 -0.1039
 1367SOL    HW1 4236   2.366   0.488   4.010 -0.4260 -0.5035 -0.6090
 1367SOL    HW2 4237   2.318   0.348   4.044 -0.3741 -0.2085  0.7575
 1368SOL     OW 4238   3.276   2.093   0.208 -0.3945  0.3591  0.2249
 1368SOL    HW1 4239   3.244   2.176   0.172 -1.3799  0.2030  0.7216
 1368SOL    HW2 4240   3.202   2.033   0.199  0.7092 -0.8436 -1.3136
 1369SOL     OW 4241   2.473   1.699   2.583  0.0421 -0.2492  0.2900
 1369SOL    HW1 4242   2.394   1.670   2.538  2.1702 -2.9559 -2.0952
 1369SOL    HW2 4243   2.505   1.621   2.628  0.6382  1.1642  2.4605
 1370SOL     OW 4244   1.602   0.783   0.363  0.6663  0.2486 -0.0983
 1370SOL    HW1 4245   1.668   0.812   0.301  0.2272 -0.0386 -0.7099
 1370SOL    HW2 4246   1.621   0.690   0.377 -0.5487 -0.2624 -1.5272
 1371SOL     OW 4247   0.729   1.562   0.159 -0.8080 -0.0211  0.2927
 1371SOL    HW1 4248   0.664   1.492   0.170  0.8048 -1.3670  2.0003
 1371SOL    HW2 4249   0.791   1.547   0.230  1.7207  0.8391 -1.6177
 1372SOL     OW 4250   4.782   0.293   4.011 -0.0687 -0.9419  0.4368
 1372SOL    HW1 4251   4.746   0.362   3.955  0.7879 -1.0449 -0.2641
 1372SOL    HW2 4252   4.873   0.319   4.026  0.0787 -1.5862  0.6961
 1373SOL     OW 4253   4.161   1.452   2.986 -0.0345 -0.0538 -0.7464
 1373SOL    HW1 4254   4.139   1.517   2.919 -0.9425  0.5198  0.0855
 1373SOL    HW2 4255   4.125   1.487   3.067 -0.7500 -1.6940 -0.3047
 1374SOL     OW 4256   4.425   2.948   0.606  0.8203 -0.3254  0.3050
 1374SOL    HW1 4257   4.333   2.953   0.582  0.9325 -0.9072 -0.2591
 1374SOL    HW2 4258   4.469   2.917   0.527  1.4291 -0.5319  0.7164
 1375SOL     OW 4259   1.322   1.109   1.018  0.0314 -0.1977 -0.1518
 1375SOL    HW1 4260   1.309   1.164   1.095  0.0205 -1.7618  1.0094
 1375SOL    HW2 4261   1.379   1.161   0.961 -0.3564  1.1893  0.6658
 1376SOL     OW 4262   4.502   0.421   2.203  0.2140 -0.2446  0.2996
 1376SOL    HW1 4263   4.445   0.378   2.140 -2.8611  1.2070  1.8439
 1376SOL    HW2 4264   4.576   0.361   2.215 -0.1862 -1.5549 -2.9191
 1377SOL     OW 4265   1.333   1.921   4.825  0.3289  0.4776  0.1185
 1377SOL    HW1 4266   1.368   1.833   4.837 -0.3197  0.3935  1.6422
 1377SOL    HW2 4267   1.391   1.977   4.877 -1.4968  0.3761  2.4393
 1378SOL     OW 4268   1.674   1.110   0.686 -0.2483  0.4554 -0.3128
 1378SOL    HW1 4269   1.758   1.139   0.722  0.0228 -1.3025  0.5951
 1378SOL    HW2 4270   1.698   1.047   0.618 -0.8203  0.1921 -0.2750
 1379SOL     OW 4271   4.234   0.556   4.454 -0.1521 -0.2400 -0.0493
 1379SOL    HW1 4272   4.269   0.571   4.366  0.3653 -0.5314  0.1080
 1379SOL    HW2 4273   4.140   0.576   4.445 -0.0116  0.2533 -0.5375
 1380SOL     OW 4274   1.571   2.027   1.697  0.3021 -0.1766  0.6507
 1380SOL    HW1 4275   1.643   2.040   1.758  1.1205 -1.0500 -0.1037
 1380SOL    HW2 4276   1.574   1.933   1.676  2.0479  0.5543 -3.1392
 1381SOL     OW 4277   2.013   4.636   4.452  0.3320 -0.2876  0.2250
 1381SOL    HW1 4278   1.979   4.633   4.363  1.0663 -0.8042 -0.0516
 1381SOL    HW2 4279   2.101   4.599   4.445  1.2944  1.7512  0.7546
 1382SOL     OW 4280   3.449   3.730   0.340 -0.4325  0.5747 -0.4199
 1382SOL    HW1 4281   3.523   3.669   0.336  0.4705  1.7186 -2.1604
 1382SOL    HW2 4282   3.380   3.680   0.383  1.1086 -0.7627  0.6396
 1383SOL     OW 4283   2.584   1.197   4.345 -0.1880  1.0468  0.2449
 1383SOL    HW1 4284   2.608   1.167   4.432  1.0143  0.5336 -0.2446
 1383SOL    HW2 4285   2.651   1.161   4.287 -3.1131 -2.1651 -1.5330
 1384SOL     OW 4286   2.738   2.749   3.035 -0.1213  0.3706  0.2425
 1384SOL    HW1 4287   2.790   2.715   3.108 -0.4858 -0.7486  0.0002
 1384SOL    HW2 4288   2.648   2.723   3.055 -0.4316  1.3294  0.1123
 1385SOL     OW 4289   4.031   3.082   3.687  0.4631 -0.0938 -0.8357
 1385SOL    HW1 4290   3.955   3.128   3.724  0.7411  0.3447 -0.8052
 1385SOL    HW2 4291   4.100   3.148   3.685  0.2605  0.1090 -2.8168
 1386SOL     OW 4292   0.545   3.200   1.534 -0.5524 -0.1779 -0.0678
 1386SOL    HW1 4293   0.640   3.201   1.530 -0.5457 -0.4324  0.0537
 1386SOL    HW2 4294   0.524   3.184   1.626 -0.7074 -1.5131 -0.3112
 1387SOL     OW 4295   1.223   0.475   1.554  0.4548  0.5737  0.4961
 1387SOL    HW1 4296   1.177   0.441   1.631  0.5554 -1.4351 -0.2903
 1387SOL    HW2 4297   1.315   0.458   1.572  0.4348 -0.4077 -0.2960
 1388SOL     OW 4298   4.160   4.745   0.133  0.2700  0.0991 -0.3193
 1388SOL    HW1 4299   4.180   4.769   0.224 -0.9214  0.4066 -0.1211
 1388SOL    HW2 4300   4.240   4.768   0.085  0.5047  1.0373  0.4647
 1389SOL     OW 4301   2.069   0.111   1.062 -0.1931 -0.6785 -0.0972
 1389SOL    HW1 4302   2.074   0.153   0.977 -1.6823 -1.3887 -0.5604
 1389SOL    HW2 4303   2.160   0.107   1.092  0.1961  0.8539 -0.9984
 1390SOL     OW 4304   4.401   2.946   4.585  0.8325  0.0422 -0.6771
 1390SOL    HW1 4305   4.386   2.910   4.497 -2.3187 -1.7221  0.4075
 1390SOL    HW2 4306   4.495   2.938   4.599  1.2220 -1.0400 -3.3024
 1391SOL     OW 4307   0.373   2.865   3.766 -0.1266 -0.3695  0.2054
 1391SOL    HW1 4308   0.423   2.803   3.714  0.7754  0.1557  0.4236
 1391SOL    HW2 4309   0.291   2.820   3.786  0.2979 -1.2787 -0.0797
 1392SOL     OW 4310   1.372   4.342   2.775 -0.4384  0.0222 -0.1044
 1392SOL    HW1 4311   1.419   4.268   2.814  0.4977 -0.1791 -1.5128
 1392SOL    HW2 4312   1.433   4.415   2.784  0.1621 -0.2025 -1.7942
 1393SOL     OW 4313   3.651   0.245   3.415 -0.6333  0.7062 -0.8749
 1393SOL    HW1 4314   3.653   0.301   3.337  1.3033  0.9682 -0.7080
 1393SOL    HW2 4315   3.616   0.162   3.384  0.5327  0.6478 -2.1885
 1394SOL     OW 4316   0.946   2.142   3.306 -0.1036  0.1631  0.0112
 1394SOL    HW1 4317   0.934   2.081   3.232 -0.4078  1.0303 -0.6725
 1394SOL    HW2 4318   0.875   2.206   3.296 -0.8022 -0.3076  1.6933
 1395SOL     OW 4319   2.592   3.417   4.174  0.5762  0.5741  0.3556
 1395SOL    HW1 4320   2.643   3.377   4.244  0.1839 -1.4835 -0.4523
 1395SOL    HW2 4321   2.657   3.456   4.116  1.0199  0.7459  0.9672
 1396SOL     OW 4322   3.345   4.376   3.459  0.0693 -0.3743  0.2086
 1396SOL    HW1 4323   3.370   4.336   3.542 -1.6482  0.1005  0.9917
 1396SOL    HW2 4324   3.404   4.336   3.394 -1.3204 -3.9946  0.9672
 1397SOL     OW 4325   3.234   1.870   2.115  0.5448 -1.1402 -0.5919
 1397SOL    HW1 4326   3.248   1.916   2.198  0.3615 -1.2748 -0.4852
 1397SOL    HW2 4327   3.250   1.778   2.137  5.4416 -0.8250 -1.7376
 1398SOL     OW 4328   4.075   3.251   0.445 -0.5160  0.5629  0.8050
 1398SOL    HW1 4329   4.135   3.178   0.430  2.0724  2.3085  1.9680
 1398SOL    HW2 4330   4.131   3.322   0.475 -2.8838  3.1063 -0.3803
 1399SOL     OW 4331   2.321   1.200   3.211 -0.7420 -0.0162 -0.3502
 1399SOL    HW1 4332   2.342   1.267   3.276 -1.5928  0.8436 -0.9355
 1399SOL    HW2 4333   2.347   1.239   3.127 -2.0127 -0.0721 -0.7881
 1400SOL     OW 4334   2.836   2.657   0.822 -0.2753  0.1428  0.2176
 1400SOL    HW1 4335   2.851   2.578   0.770 -0.2631  0.5216 -0.3696
 1400SOL    HW2 4336   2.859   2.632   0.911 -0.1808 -0.4899  0.0217
 1401SOL     OW 4337   4.711   3.040   2.553  0.1524  0.3927 -0.2070
 1401SOL    HW1 4338   4.620   3.043   2.524  0.8250 -0.4453 -2.6481
 1401SOL    HW2 4339   4.758   2.998   2.481  2.5491  1.1368  0.8087
 1402SOL     OW 4340   4.070   1.016   1.731  0.2970  0.3789 -0.3693
 1402SOL    HW1 4341   4.003   1.083   1.733  1.8027  1.9767  1.5997
 1402SOL    HW2 4342   4.134   1.047   1.666 -1.2120 -1.6509 -3.0203
 1403SOL     OW 4343   3.544   4.833   0.431  0.2414 -0.1291 -0.2192
 1403SOL    HW1 4344   3.477   4.874   0.376  0.2546  0.6936  0.3524
 1403SOL    HW2 4345   3.617   4.895   0.430  1.5313 -1.5854 -1.8557
 1404SOL     OW 4346   3.677   1.601   3.930 -0.0125  0.5464 -0.4481
 1404SOL    HW1 4347   3.695   1.510   3.952  0.5143 -0.7025 -4.8985
 1404SOL    HW2 4348   3.763   1.643   3.928  0.0360  0.4368 -0.7858
 1405SOL     OW 4349   2.672   1.981   0.274 -0.7693  0.3195 -0.2448
 1405SOL    HW1 4350   2.595   1.988   0.219 -2.9333 -1.9796  2.2062
 1405SOL    HW2 4351   2.661   2.049   0.340 -1.2610 -0.6563  0.6975
 1406SOL     OW 4352   2.947   2.838   1.651  0.4574  0.5063 -0.1770
 1406SOL    HW1 4353   2.980   2.895   1.581  1.1489  0.7873  0.3631
 1406SOL    HW2 4354   2.994   2.867   1.729  0.6134 -0.6111  0.1643
 1407SOL     OW 4355   0.429   3.730   4.259 -0.6431 -1.2565  0.0780
 1407SOL    HW1 4356   0.504   3.769   4.215 -1.9811  0.2277 -1.0036
 1407SOL    HW2 4357   0.466   3.657   4.309  1.5385 -0.4076 -0.1690
 1408SOL     OW 4358   2.667   3.628   3.793  0.0421  0.2257 -0.2203
 1408SOL    HW1 4359   2.696   3.649   3.705 -0.7566  2.2859 -0.0460
 1408SOL    HW2 4360   2.571   3.624   3.786 -0.1500  1.9284  0.7859
 1409SOL     OW 4361   0.723   0.715   3.540 -0.1025  0.0341  0.4478
 1409SOL    HW1 4362   0.681   0.764   3.611 -1.5693  0.4618 -0.6664
 1409SOL    HW2 4363   0.681   0.628   3.544  2.0292 -1.0076  2.0133
 1410SOL     OW 4364   3.792   0.663   3.163  0.2682 -0.2466  0.2736
 1410SOL    HW1 4365   3.854   0.652   3.235 -0.2526 -2.0449  0.4941
 1410SOL    HW2 4366   3.728   0.594   3.176 -1.6430  1.3398 -0.1430
 1411SOL     OW 4367   0.903   2.772   0.537  0.0812 -0.4444 -0.2447
 1411SOL    HW1 4368   0.888   2.824   0.616 -1.3643  0.4284 -1.0488
 1411SOL    HW2 4369   0.861   2.822   0.467  1.7412 -0.9361 -1.6864
 1412SOL     OW 4370   2.680   0.272   1.710 -0.3890  0.2070 -0.8458
 1412SOL    HW1 4371   2.773   0.262   1.728 -0.7913  0.5707  1.9348
 1412SOL    HW2 4372   2.655   0.191   1.667  0.7261 -1.1203  0.8628
 1413SOL     OW 4373   4.323   1.565   2.209  0.5667 -0.1512 -0.4573
 1413SOL    HW1 4374   4.386   1.498   2.235 -0.1672 -1.2652 -1.4507
 1413SOL    HW2 4375   4.241   1.538   2.250  0.6082  1.0882  0.5253
 1414SOL     OW 4376   3.398   2.982   4.363 -0.2251  0.5289  0.4713
 1414SOL    HW1 4377   3.397   3.070   4.327 -0.0424 -0.0023 -0.8843
 1414SOL    HW2 4378   3.417   2.994   4.456  2.3080  1.7777 -0.1400
 1415SOL     OW 4379   2.175   0.083   3.037 -0.0704 -0.7035 -0.1615
 1415SOL    HW1 4380   2.107   0.147   3.017  1.0178  1.1693  1.7426
 1415SOL    HW2 4381   2.150   0.047   3.123  1.0521 -0.3158  0.3535
 1416SOL     OW 4382   0.621   3.648   0.474  0.4925 -0.4850 -0.5134
 1416SOL    HW1 4383   0.693   3.682   0.422 -0.5358  2.5602 -0.1857
 1416SOL    HW2 4384   0.655   3.644   0.563  0.2731  1.0663 -0.3380
 1417SOL     OW 4385   3.960   2.444   0.636 -0.8096 -0.2830 -0.0564
 1417SOL    HW1 4386   3.959   2.448   0.732 -1.7262 -0.1154 -0.0601
 1417SOL    HW2 4387   4.007   2.523   0.610 -2.4533  0.8593  0.2427
 1418SOL     OW 4388   4.508   1.160   4.282  0.4315  0.2733  0.4294
 1418SOL    HW1 4389   4.415   1.149   4.261  0.2478  0.7118  1.0069
 1418SOL    HW2 4390   4.551   1.160   4.197 -0.1047  0.1392  0.1501
 1419SOL     OW 4391   1.070   4.482   2.949 -0.1735  0.1532  0.7104
 1419SOL    HW1 4392   1.111   4.557   2.906 -0.8753  0.0013 -0.2615
 1419SOL    HW2 4393   1.130   4.409   2.933 -1.7903 -0.6256 -2.7719
 1420SOL     OW 4394   2.555   3.425   4.462 -0.5847  0.0226  0.1355
 1420SOL    HW1 4395   2.544   3.346   4.515  1.5656 -0.4405 -0.0283
 1420SOL    HW2 4396   2.486   3.420   4.396 -3.3849  0.6270  2.7994
 1421SOL     OW 4397   4.092   1.399   3.679  0.2486  0.1918 -0.3567
 1421SOL    HW1 4398   4.167   1.381   3.622 -0.4799  1.8141 -1.9236
 1421SOL    HW2 4399   4.083   1.494   3.678 -2.7888  0.0266 -1.5737
 1422SOL     OW 4400   0.533   0.853   4.455 -0.6040  0.6490 -0.4576
 1422SOL    HW1 4401   0.496   0.839   4.543  0.0490  0.0684 -0.2666
 1422SOL    HW2 4402   0.478   0.922   4.417 -0.3936  1.4928  0.7088
 1423SOL     OW 4403   3.942   2.395   1.682 -0.5527  0.0620 -0.4588
 1423SOL    HW1 4404   3.865   2.385   1.626 -1.5467 -0.2147  0.9049
 1423SOL    HW2 4405   3.993   2.316   1.668 -1.7331 -0.8883  0.3871
 1424SOL     OW 4406   2.370   3.606   4.138  0.4244  0.3462  0.3915
 1424SOL    HW1 4407   2.445   3.548   4.125  0.5903  0.4546  0.8425
 1424SOL    HW2 4408   2.314   3.559   4.201 -0.5500 -0.3496 -0.9391
 1425SOL     OW 4409   3.728   1.114   2.085  0.1757  0.5098  0.3499
 1425SOL    HW1 4410   3.798   1.107   2.020  0.8129 -2.9946  1.2110
 1425SOL    HW2 4411   3.767   1.080   2.166 -2.8781 -3.5336  0.4038
 1426SOL     OW 4412   4.731   3.786   1.427 -0.1281  0.3011 -0.6112
 1426SOL    HW1 4413   4.704   3.718   1.365 -0.1796 -1.0058  0.7623
 1426SOL    HW2 4414   4.690   3.866   1.396 -2.3543 -0.8362 -0.7837
 1427SOL     OW 4415   1.037   0.689   0.172  0.6119  0.0290  0.3236
 1427SOL    HW1 4416   1.020   0.610   0.119  0.7478 -0.2164  0.6452
 1427SOL    HW2 4417   1.130   0.685   0.191  1.5704  2.3593 -3.0435
 1428SOL     OW 4418   4.181   1.059   0.164  0.1524  0.0908  0.3694
 1428SOL    HW1 4419   4.189   0.963   0.158  0.6043  0.2127 -3.2620
 1428SOL    HW2 4420   4.087   1.075   0.162  0.0650 -0.3190 -1.6794
 1429SOL     OW 4421   3.527   1.898   0.128 -0.3826  0.3751 -0.1087
 1429SOL    HW1 4422   3.432   1.892   0.117 -0.3106 -0.0485 -0.5121
 1429SOL    HW2 4423   3.541   1.886   0.222 -0.6011 -1.4033 -0.2628
 1430SOL     OW 4424   1.655   3.246   1.518  0.1658 -0.6400  0.1810
 1430SOL    HW1 4425   1.617   3.169   1.475 -1.5250 -1.2222  2.5241
 1430SOL    HW2 4426   1.641   3.318   1.455  0.8796 -2.0053 -1.6269
 1431SOL     OW 4427   3.353   1.713   0.608 -0.0697 -0.3086  0.4864
 1431SOL    HW1 4428   3.287   1.782   0.614 -1.2437 -1.5218  2.7578
 1431SOL    HW2 4429   3.423   1.741   0.667  1.6570  1.0281 -1.9933
 1432SOL     OW 4430   3.727   4.765   3.742  0.4887 -0.9323  0.1572
 1432SOL    HW1 4431   3.679   4.760   3.659  0.8379 -0.0954 -0.1157
 1432SOL    HW2 4432   3.663   4.742   3.809 -0.2712  0.0092 -0.2158
 1433SOL     OW 4433   2.771   1.315   1.803  0.2558  0.6895 -0.1974
 1433SOL    HW1 4434   2.730   1.374   1.739  0.5530  1.4802  0.3203
 1433SOL    HW2 4435   2.782   1.369   1.881  0.5033 -0.0776  0.3092
 1434SOL     OW 4436   2.584   1.477   2.682  0.0226 -0.2819 -0.5447
 1434SOL    HW1 4437   2.537   1.453   2.762 -1.2980  1.9216 -0.5978
 1434SOL    HW2 4438   2.664   1.424   2.685 -2.0543 -3.6887 -0.1120
 1435SOL     OW 4439   3.880   1.794   4.200 -0.0152 -0.3978 -0.4738
 1435SOL    HW1 4440   3.945   1.829   4.262  1.3500 -1.4457 -1.2494
 1435SOL    HW2 4441   3.886   1.699   4.210 -2.0886 -0.5102  0.0325
 1436SOL     OW 4442   4.205   1.869   4.163  0.1062  0.5862  0.2847
 1436SOL    HW1 4443   4.170   1.949   4.123  0.2226  1.0811  1.1395
 1436SOL    HW2 4444   4.172   1.871   4.253  0.2817 -0.2263  0.3709
 1437SOL     OW 4445   4.217   0.269   4.212  0.1971 -0.2570 -0.8739
 1437SOL    HW1 4446   4.284   0.246   4.277  0.3098 -0.3054 -1.0058
 1437SOL    HW2 4447   4.216   0.365   4.212  1.3805 -0.2122 -1.9884
 1438SOL     OW 4448   3.801   0.701   4.166  0.0407  0.0363  0.9833
 1438SOL    HW1 4449   3.743   0.633   4.133  1.3617  0.7915 -3.4532
 1438SOL    HW2 4450   3.746   0.780   4.170 -0.3184 -0.2300  1.3820
 1439SOL     OW 4451   4.228   1.822   0.445 -0.0744  0.0389  0.3265
 1439SOL    HW1 4452   4.229   1.734   0.481 -1.3697 -0.7256 -1.3719
 1439SOL    HW2 4453   4.159   1.868   0.492 -0.3933 -0.3164  0.2027
 1440SOL     OW 4454   1.864   1.153   1.059 -0.4096 -0.2616  0.4134
 1440SOL    HW1 4455   1.886   1.064   1.086  0.1375 -0.2565 -0.0010
 1440SOL    HW2 4456   1.862   1.150   0.964 -1.4684 -0.0767  0.4179
 1441SOL     OW 4457   0.914   4.833   2.692 -0.6361 -0.1684 -0.2525
 1441SOL    HW1 4458   0.868   4.770   2.748 -1.3163  0.0017 -0.6081
 1441SOL    HW2 4459   0.865   4.914   2.702  1.4514  0.9373  1.8563
 1442SOL     OW 4460   3.273   2.496   0.350 -0.0864  0.3802  0.2421
 1442SOL    HW1 4461   3.207   2.428   0.339 -0.0175 -0.1013  2.4365
 1442SOL    HW2 4462   3.341   2.456   0.403  2.6990  0.4553 -2.9366
 1443SOL     OW 4463   3.166   0.227   2.433  0.1322  0.0092 -0.1851
 1443SOL    HW1 4464   3.179   0.321   2.419 -1.4353  0.1953 -0.5437
 1443SOL    HW2 4465   3.217   0.186   2.363  1.6405  0.5253  0.5630
 1444SOL     OW 4466   1.721   0.823   3.945  0.0815 -0.1875 -0.1991
 1444SOL    HW1 4467   1.797   0.880   3.958  0.6113 -1.2345  1.7965
 1444SOL    HW2 4468   1.705   0.825   3.851  0.8519  2.2082 -0.3383
 1445SOL     OW 4469   3.573   2.394   3.353 -0.5989  0.8373 -0.0668
 1445SOL    HW1 4470   3.546   2.437   3.272  1.3249  2.3288  0.0248
 1445SOL    HW2 4471   3.625   2.319   3.323  0.1968  1.4455 -0.2373
 1446SOL     OW 4472   0.643   2.505   3.883  0.5234 -0.4615  0.0224
 1446SOL    HW1 4473   0.634   2.595   3.914 -0.3788 -0.2514 -0.7906
 1446SOL    HW2 4474   0.676   2.457   3.959  0.3573  0.4209  0.6772
 1447SOL     OW 4475   4.789   2.966   2.108  0.2766  0.4908 -0.5719
 1447SOL    HW1 4476   4.751   2.991   2.024  0.0997  4.2891  0.4609
 1447SOL    HW2 4477   4.883   2.958   2.089 -0.0481 -1.8068 -1.6421
 1448SOL     OW 4478   4.840   0.247   0.966 -0.4003 -0.1737  0.3019
 1448SOL    HW1 4479   4.745   0.247   0.982 -0.4903  0.7978 -0.1599
 1448SOL    HW2 4480   4.858   0.335   0.932  0.6457 -0.4049  0.2498
 1449SOL     OW 4481   2.093   1.189   1.323  0.0626 -0.8078 -0.2112
 1449SOL    HW1 4482   2.116   1.104   1.286  1.9852 -1.4969  2.2535
 1449SOL    HW2 4483   2.162   1.248   1.293 -0.6219 -0.3794 -0.9715
 1450SOL     OW 4484   4.149   2.105   3.032 -0.1532  0.8881  0.3700
 1450SOL    HW1 4485   4.133   2.071   3.119 -0.5794  1.0757  0.3708
 1450SOL    HW2 4486   4.150   2.200   3.043  0.5869  0.8986  0.2974
 1451SOL     OW 4487   1.844   3.927   4.352 -0.3178  0.5495  0.1977
 1451SOL    HW1 4488   1.840   3.946   4.258  0.2799  0.8721  0.2346
 1451SOL    HW2 4489   1.924   3.971   4.382  0.4292 -0.9933  0.5302
 1452SOL     OW 4490   3.758   0.546   3.779 -0.1380  0.2259 -0.3730
 1452SOL    HW1 4491   3.783   0.626   3.733  0.1949 -0.1830 -0.9254
 1452SOL    HW2 4492   3.787   0.475   3.721  1.3920 -0.3463  1.0078
 1453SOL     OW 4493   1.779   0.335   1.260 -0.0878  0.7975  0.3560
 1453SOL    HW1 4494   1.730   0.357   1.181  0.6860  1.4597  0.0425
 1453SOL    HW2 4495   1.756   0.244   1.279  0.2215  0.4140 -1.0130
 1454SOL     OW 4496   1.994   4.489   3.664  0.2782  0.3590  0.5683
 1454SOL    HW1 4497   1.981   4.529   3.578  2.9992  0.6601  0.2105
 1454SOL    HW2 4498   1.952   4.548   3.725 -1.1286  0.4891 -0.4812
 1455SOL     OW 4499   4.470   4.518   1.416  0.0237 -0.5695  0.2834
 1455SOL    HW1 4500   4.502   4.542   1.503 -2.5353 -0.8207  1.4046
 1455SOL    HW2 4501   4.430   4.432   1.429 -0.4971 -0.5581 -1.1087
 1456SOL     OW 4502   0.821   1.175   2.388  0.5246  0.4350  0.3466
 1456SOL    HW1 4503   0.755   1.118   2.428 -0.0642  1.0546  0.2684
 1456SOL    HW2 4504   0.773   1.254   2.363  1.4072  1.1294  0.7991
 1457SOL     OW 4505   1.287   0.272   1.760 -0.2451  0.0965 -0.0720
 1457SOL    HW1 4506   1.286   0.347   1.819  1.5463 -0.6556  0.9961
 1457SOL    HW2 4507   1.372   0.276   1.717  0.4373 -1.9844  0.9606
 1458SOL     OW 4508   3.155   3.113   4.459  0.0465 -0.1494  0.6463
 1458SOL    HW1 4509   3.065   3.119   4.425 -0.3945  0.9847  1.9205
 1458SOL    HW2 4510   3.188   3.203   4.453  1.0221 -0.5137  0.4168
 1459SOL     OW 4511   2.304   3.016   3.016 -0.3566  1.1239  0.4128
 1459SOL    HW1 4512   2.306   3.055   3.103 -0.5044  0.2581  0.8178
 1459SOL    HW2 4513   2.394   2.988   3.000 -0.7275 -0.6884  1.2339
 1460SOL     OW 4514   4.377   3.718   2.475 -0.0729 -0.1338 -0.5932
 1460SOL    HW1 4515   4.413   3.647   2.422  0.9585 -0.4235  0.4401
 1460SOL    HW2 4516   4.341   3.674   2.552 -1.9295  0.2378 -1.2003
 1461SOL     OW 4517   2.124   4.348   1.236  0.1097  0.3569 -0.0444
 1461SOL    HW1 4518   2.113   4.320   1.145 -0.2726 -0.0253  0.1168
 1461SOL    HW2 4519   2.074   4.429   1.242  0.2798  0.4784 -0.2162
 1462SOL     OW 4520   1.482   3.390   3.552 -0.4768  0.1260 -0.3326
 1462SOL    HW1 4521   1.567   3.354   3.526 -0.6779 -0.0480 -0.7495
 1462SOL    HW2 4522   1.429   3.313   3.572  0.2422  0.2503  2.4843
 1463SOL     OW 4523   4.529   1.240   0.688  0.0441 -0.0442 -0.5102
 1463SOL    HW1 4524   4.625   1.238   0.692  0.1134  2.2991  1.2965
 1463SOL    HW2 4525   4.507   1.333   0.686 -2.2348 -0.4518  1.4224
 1464SOL     OW 4526   4.423   3.559   1.783 -0.3789  0.3246 -0.2920
 1464SOL    HW1 4527   4.451   3.513   1.704 -0.4595  1.0694 -0.7646
 1464SOL    HW2 4528   4.485   3.532   1.850  0.0441  0.1329 -0.7559
 1465SOL     OW 4529   2.379   3.533   4.940  0.0618 -0.3678 -1.0002
 1465SOL    HW1 4530   2.459   3.537   4.991 -1.1618  0.1890  0.9767
 1465SOL    HW2 4531   2.379   3.614   4.888  0.0553  0.3906  0.1568
 1466SOL     OW 4532   0.814   1.612   4.675 -0.1482 -0.0469 -0.8413
 1466SOL    HW1 4533   0.770   1.696   4.659  1.2054  1.1789  1.4071
 1466SOL    HW2 4534   0.749   1.560   4.723  0.2831  1.2515  1.2612
 1467SOL     OW 4535   0.067   0.381   1.233  0.0945 -0.3131 -0.2055
 1467SOL    HW1 4536   0.131   0.327   1.279 -0.1129  0.6188  1.2356
 1467SOL    HW2 4537  -0.018   0.345   1.258 -0.0746  1.0274  1.3017
 1468SOL     OW 4538   2.522   1.319   3.446 -1.2678 -0.4733  0.1200
 1468SOL    HW1 4539   2.546   1.409   3.469  0.8497 -0.5667 -1.4221
 1468SOL    HW2 4540   2.513   1.275   3.530 -0.4524  0.7350  0.8853
 1469SOL     OW 4541   4.350   1.071   1.341 -0.2069  0.1755  0.2238
 1469SOL    HW1 4542   4.315   1.058   1.253  1.9674 -0.6931 -0.5774
 1469SOL    HW2 4543   4.412   0.999   1.353 -0.4089  0.2965  2.4705
 1470SOL     OW 4544   1.537   1.052   0.103  0.5968 -0.0009  0.0499
 1470SOL    HW1 4545   1.558   0.976   0.157 -0.1399 -0.5525 -0.4137
 1470SOL    HW2 4546   1.531   1.017   0.014 -3.3727 -0.2039  0.1981
 1471SOL     OW 4547   3.678   2.240   3.055  0.3284  0.4879 -0.3693
 1471SOL    HW1 4548   3.705   2.214   2.967 -0.8550  0.0554 -0.6328
 1471SOL    HW2 4549   3.626   2.166   3.087  0.3883  0.8185  0.5326
 1472SOL     OW 4550   3.705   3.197   4.349  0.2371 -0.1781  0.3561
 1472SOL    HW1 4551   3.611   3.218   4.345  0.1522 -0.2086  1.5805
 1472SOL    HW2 4552   3.718   3.129   4.283 -0.5604 -0.0052  0.0142
 1473SOL     OW 4553   4.947   2.563   4.144  0.7993 -0.1558 -0.2033
 1473SOL    HW1 4554   4.949   2.619   4.067 -0.1212 -1.7258 -1.4358
 1473SOL    HW2 4555   4.988   2.481   4.115  1.2464 -0.4776  1.2505
 1474SOL     OW 4556   0.896   0.705   0.609  0.8866  0.5673 -0.1858
 1474SOL    HW1 4557   0.891   0.707   0.513 -1.5072  0.1440 -0.1279
 1474SOL    HW2 4558   0.823   0.760   0.638 -0.7274 -2.1845  1.3587
 1475SOL     OW 4559   4.600   1.994   4.467  0.4404  0.7449  0.3178
 1475SOL    HW1 4560   4.594   2.084   4.436  2.5232  0.9213  0.3126
 1475SOL    HW2 4561   4.588   1.941   4.389 -0.4619  1.0169  0.2661
 1476SOL     OW 4562   1.718   4.774   3.637 -0.0730  0.4065 -0.0522
 1476SOL    HW1 4563   1.783   4.780   3.566 -0.5375  0.4114 -0.4812
 1476SOL    HW2 4564   1.745   4.841   3.700  0.5620  0.1486 -0.0441
 1477SOL     OW 4565   1.443   0.684   3.877 -0.6415  0.5657 -0.4541
 1477SOL    HW1 4566   1.533   0.657   3.861  0.3314  1.8523  2.3310
 1477SOL    HW2 4567   1.446   0.780   3.877 -1.5608  0.6449  1.5616
 1478SOL     OW 4568   3.187   3.575   2.157 -0.2665 -0.1922  0.6887
 1478SOL    HW1 4569   3.102   3.613   2.133 -0.6722 -0.7333  1.2229
 1478SOL    HW2 4570   3.190   3.582   2.252  1.4628  2.2360  0.5537
 1479SOL     OW 4571   0.152   1.097   3.531  0.0734  0.9368 -0.4351
 1479SOL    HW1 4572   0.156   1.081   3.437 -4.0322  3.0890 -1.2076
 1479SOL    HW2 4573   0.138   1.011   3.569 -0.1236  0.2341 -2.0207
 1480SOL     OW 4574   1.937   0.780   0.683  0.5251 -0.2342 -0.8574
 1480SOL    HW1 4575   1.848   0.799   0.652  0.0249 -1.0131  0.0517
 1480SOL    HW2 4576   1.985   0.861   0.667 -0.8855  0.9624  0.5491
 1481SOL     OW 4577   1.758   2.492   2.950 -0.1235 -0.8468 -0.3021
 1481SOL    HW1 4578   1.812   2.413   2.957 -0.4611 -1.0857 -0.3694
 1481SOL    HW2 4579   1.816   2.563   2.977 -0.6770 -1.4367  2.8177
 1482SOL     OW 4580   1.479   3.823   2.794  0.1844 -0.1608  0.1482
 1482SOL    HW1 4581   1.473   3.917   2.811 -2.0427 -0.1595 -0.2757
 1482SOL    HW2 4582   1.431   3.783   2.866 -0.7905 -0.7979 -0.8277
 1483SOL     OW 4583   4.732   4.025   4.004 -0.1452  0.3024  0.2133
 1483SOL    HW1 4584   4.821   4.025   3.969  0.0680  0.3124  0.7433
 1483SOL    HW2 4585   4.741   4.061   4.092 -0.0820 -3.1339  1.7430
 1484SOL     OW 4586   2.534   3.870   0.694  0.5253  0.8449 -0.7456
 1484SOL    HW1 4587   2.494   3.804   0.639 -0.2309  0.2975  0.4310
 1484SOL    HW2 4588   2.510   3.845   0.783  2.9441  0.8485 -0.0187
 1485SOL     OW 4589   2.937   3.685   0.259 -0.0851 -0.5080 -0.5092
 1485SOL    HW1 4590   2.860   3.740   0.275 -0.8897 -1.5831 -0.5558
 1485SOL    HW2 4591   2.979   3.679   0.345 -0.4085 -0.4272 -0.3408
 1486SOL     OW 4592   2.359   2.956   1.846  0.4812  0.4507  0.2092
 1486SOL    HW1 4593   2.386   3.041   1.812  0.2539  1.0598  1.5217
 1486SOL    HW2 4594   2.442   2.911   1.867  0.5845  0.6041  0.1289
 1487SOL     OW 4595   2.922   4.215   4.896  0.2799  0.1692 -0.0416
 1487SOL    HW1 4596   2.949   4.173   4.978 -0.5752  1.5420  0.9969
 1487SOL    HW2 4597   3.002   4.254   4.862  0.4748  0.3715  0.6326
 1488SOL     OW 4598   3.424   4.034   1.946  0.6214  0.3355  0.1279
 1488SOL    HW1 4599   3.387   4.005   1.862  0.9040  1.1055 -0.2687
 1488SOL    HW2 4600   3.465   3.955   1.982 -1.1559 -0.4827  0.4620
 1489SOL     OW 4601   1.259   4.863   2.604  0.1380 -0.6025  0.4987
 1489SOL    HW1 4602   1.305   4.942   2.575  0.4070 -1.1792 -0.7430
 1489SOL    HW2 4603   1.170   4.874   2.570  0.0284 -0.5771  0.7997
 1490SOL     OW 4604   2.181   2.801   3.158  0.6900  0.3282 -0.0954
 1490SOL    HW1 4605   2.152   2.812   3.067 -0.6817 -0.6978  0.1864
 1490SOL    HW2 4606   2.275   2.783   3.151  0.3658 -1.0501 -1.4214
 1491SOL     OW 4607   4.441   0.045   0.219  0.4499  0.2997  1.1105
 1491SOL    HW1 4608   4.357   0.090   0.218 -0.3958 -0.9721 -2.5907
 1491SOL    HW2 4609   4.440  -0.006   0.299 -1.1785  2.1901  2.3870
 1492SOL     OW 4610   0.364   1.551   0.661  0.6592 -0.5144 -0.2432
 1492SOL    HW1 4611   0.273   1.579   0.672  0.1062 -1.9310 -1.0659
 1492SOL    HW2 4612   0.415   1.629   0.685 -0.7909  1.8496 -3.8995
 1493SOL     OW 4613   4.285   2.114   4.313 -0.2696  0.1896  0.4414
 1493SOL    HW1 4614   4.321   2.191   4.269  0.8211  0.2066  1.3237
 1493SOL    HW2 4615   4.223   2.151   4.377 -1.0462  0.2211 -0.3114
 1494SOL     OW 4616   4.443   0.679   4.586  0.2948  0.1564  0.5934
 1494SOL    HW1 4617   4.495   0.676   4.506  0.9322  0.9110  0.9686
 1494SOL    HW2 4618   4.369   0.619   4.570  0.8421 -0.3006 -0.2481
 1495SOL     OW 4619   2.621   2.280   1.274  0.2705 -0.4238 -0.1634
 1495SOL    HW1 4620   2.680   2.269   1.200  1.3967 -0.6900  0.7496
 1495SOL    HW2 4621   2.540   2.238   1.246  0.3248  0.3468 -1.6170
 1496SOL     OW 4622   2.372   4.255   2.048 -0.4041  0.0263 -0.4188
 1496SOL    HW1 4623   2.431   4.302   1.990  0.9629 -0.5730  0.4355
 1496SOL    HW2 4624   2.386   4.163   2.026 -0.2921 -0.1743  0.4591
 1497SOL     OW 4625   2.207   2.342   0.942 -0.1122  0.9108  0.3446
 1497SOL    HW1 4626   2.123   2.324   0.985  0.9798 -0.5641  2.0003
 1497SOL    HW2 4627   2.268   2.282   0.984  1.9404  2.4681 -0.2981
 1498SOL     OW 4628   2.836   3.414   4.750  0.2500 -0.1540  0.1615
 1498SOL    HW1 4629   2.744   3.434   4.767 -0.3571  1.0415 -3.5874
 1498SOL    HW2 4630   2.884   3.466   4.814 -1.6461  1.0264  0.7083
 1499SOL     OW 4631   3.119   2.244   1.817 -0.0018 -0.5201  0.0231
 1499SOL    HW1 4632   3.204   2.271   1.784 -0.1575 -0.7267 -0.5580
 1499SOL    HW2 4633   3.137   2.203   1.901  0.4750 -0.6180 -0.1259
 1500SOL     OW 4634   1.679   0.811   0.666  0.9012 -0.3074 -0.1419
 1500SOL    HW1 4635   1.640   0.735   0.711 -0.3927  0.2364 -0.3081
 1500SOL    HW2 4636   1.627   0.821   0.586  1.0682  0.7400 -0.1313
 1501SOL     OW 4637   3.855   3.452   1.420 -0.4502 -0.4324  0.0690
 1501SOL    HW1 4638   3.813   3.485   1.499 -2.2737 -1.3242 -0.4663
 1501SOL    HW2 4639   3.799   3.482   1.349  1.3923  0.7135 -0.9697
 1502SOL     OW 4640   4.602   3.559   1.277  0.2945 -0.2885  0.0464
 1502SOL    HW1 4641   4.629   3.467   1.271  1.6972  0.1818 -2.0146
 1502SOL    HW2 4642   4.525   3.558   1.334 -0.9152 -2.9942 -1.4605
 1503SOL     OW 4643   1.138   4.448   2.374 -0.4159 -0.0645  0.8168
 1503SOL    HW1 4644   1.168   4.393   2.447  1.2013  1.3348  1.2760
 1503SOL    HW2 4645   1.104   4.527   2.416 -1.6730 -0.2123  0.1213
 1504SOL     OW 4646   3.239   0.653   0.292 -0.1236 -0.4305 -0.3504
 1504SOL    HW1 4647   3.281   0.628   0.209 -1.1031 -1.1118 -0.6661
 1504SOL    HW2 4648   3.223   0.570   0.336 -0.1073 -0.1041  0.2746
 1505SOL     OW 4649   4.893   1.771   3.020 -0.6113  0.0562  0.1721
 1505SOL    HW1 4650   4.827   1.817   3.072  0.5050  1.7915  0.1135
 1505SOL    HW2 4651   4.872   1.793   2.929 -1.8735 -2.0539 -0.1157
 1506SOL     OW 4652   2.926   3.359   3.175 -0.8469 -0.3982 -0.5207
 1506SOL    HW1 4653   2.895   3.449   3.184  0.4165  0.1809 -1.6623
 1506SOL    HW2 4654   2.955   3.352   3.084 -1.4515 -2.1467 -0.6219
 1507SOL     OW 4655   0.779   3.475   0.165  0.5717  0.1248 -0.0379
 1507SOL    HW1 4656   0.761   3.391   0.207 -0.8254  0.1232 -0.6137
 1507SOL    HW2 4657   0.696   3.521   0.166  1.1121  1.1426 -0.5580
 1508SOL     OW 4658   0.763   0.043   1.605  0.3471  0.0848 -0.3864
 1508SOL    HW1 4659   0.797   0.027   1.517  0.7975 -0.0508 -0.1880
 1508SOL    HW2 4660   0.807   0.123   1.634  0.7736 -0.2885  0.0089
 1509SOL     OW 4661   3.401   4.313   2.902  0.5359  0.5024  0.0585
 1509SOL    HW1 4662   3.351   4.394   2.905  1.3581  1.0388  3.0595
 1509SOL    HW2 4663   3.493   4.342   2.905  0.8617 -0.5268  0.4583
 1510SOL     OW 4664   0.639   0.216   4.211  0.1570  0.6336 -0.5513
 1510SOL    HW1 4665   0.585   0.283   4.170 -0.4783  0.2465 -0.3658
 1510SOL    HW2 4666   0.721   0.261   4.232 -0.6595  1.6636  0.5800
 1511SOL     OW 4667   2.436   2.033   4.258  0.0303  0.4390  0.2981
 1511SOL    HW1 4668   2.451   2.111   4.312  0.6872  0.6734 -0.2046
 1511SOL    HW2 4669   2.468   1.961   4.312 -1.5745  0.3784  1.2003
 1512SOL     OW 4670   1.597   0.297   2.635  0.1797  0.2651 -0.2429
 1512SOL    HW1 4671   1.685   0.261   2.649  0.7274  1.7018  0.1892
 1512SOL    HW2 4672   1.541   0.220   2.624  0.9875 -0.8090  2.4408
 1513SOL     OW 4673   0.068   1.584   1.688  0.0797  0.0549 -0.0266
 1513SOL    HW1 4674  -0.002   1.587   1.624  0.7966  0.4099 -0.8162
 1513SOL    HW2 4675   0.025   1.563   1.771 -0.8421 -0.5630 -0.6466
 1514SOL     OW 4676   2.782   4.456   1.671  0.5392 -0.9824  0.1985
 1514SOL    HW1 4677   2.723   4.459   1.595  1.2300 -0.6908 -0.3375
 1514SOL    HW2 4678   2.758   4.533   1.723 -0.7412 -1.8272  0.9090
 1515SOL     OW 4679   3.215   3.051   0.747 -0.5203 -0.6002 -0.0168
 1515SOL    HW1 4680   3.194   3.128   0.695  3.3962  1.0367  0.5095
 1515SOL    HW2 4681   3.217   2.979   0.684  2.9532  1.1091 -2.1147
 1516SOL     OW 4682   4.490   3.405   4.124 -0.3767  0.2529  0.7721
 1516SOL    HW1 4683   4.433   3.376   4.053  1.3792  0.2755 -0.7479
 1516SOL    HW2 4684   4.452   3.487   4.154 -2.4318 -0.8795  1.4879
 1517SOL     OW 4685   4.791   1.341   2.252 -0.0980 -0.0577  0.2833
 1517SOL    HW1 4686   4.745   1.267   2.212 -0.0519 -1.1196  2.0609
 1517SOL    HW2 4687   4.881   1.309   2.265 -0.4913 -0.4015  2.6381
 1518SOL     OW 4688   0.441   1.618   1.222  0.6117  0.0306  0.1496
 1518SOL    HW1 4689   0.496   1.621   1.300  0.4007  2.9708  0.2910
 1518SOL    HW2 4690   0.389   1.538   1.233  3.5410 -1.9799  0.8095
 1519SOL     OW 4691   0.458   1.151   1.542  0.2629 -0.7770 -0.1568
 1519SOL    HW1 4692   0.387   1.096   1.574  0.9427 -1.1859  0.6916
 1519SOL    HW2 4693   0.471   1.216   1.610  0.5845 -0.5973 -0.3859
 1520SOL     OW 4694   3.165   3.418   3.413 -0.5124  0.2940  0.1295
 1520SOL    HW1 4695   3.119   3.474   3.351 -3.3364 -2.2598 -0.3557
 1520SOL    HW2 4696   3.104   3.409   3.486  0.4558 -0.9990  0.8256
 1521SOL     OW 4697   0.178   4.164   2.168  0.0785 -0.9744 -0.6357
 1521SOL    HW1 4698   0.242   4.153   2.098  0.3431  1.7657 -0.9094
 1521SOL    HW2 4699   0.215   4.232   2.225 -0.0983 -3.1025  2.2751
 1522SOL     OW 4700   4.362   1.617   0.607 -0.9937  0.0206 -0.3403
 1522SOL    HW1 4701   4.363   1.627   0.703 -4.1318  0.1566 -0.2091
 1522SOL    HW2 4702   4.450   1.588   0.585  0.6844  2.5522  2.2556
 1523SOL     OW 4703   0.992   4.395   0.597 -0.4868 -0.5620 -0.4061
 1523SOL    HW1 4704   1.024   4.308   0.571 -3.1522 -1.4013 -1.1986
 1523SOL    HW2 4705   1.051   4.456   0.554  4.4257 -1.6854  3.7041
 1524SOL     OW 4706   1.858   0.867   4.642  0.2406 -0.1249 -0.5229
 1524SOL    HW1 4707   1.844   0.932   4.573  0.3863  0.6435  0.1638
 1524SOL    HW2 4708   1.911   0.800   4.600 -1.6205 -0.8666 -1.8577
 1525SOL     OW 4709   3.049   4.956   2.163 -0.2230  0.5561  0.4892
 1525SOL    HW1 4710   2.959   4.979   2.183 -0.7747  1.0301 -2.2446
 1525SOL    HW2 4711   3.055   4.863   2.183 -1.1315  0.6545  1.2646
 1526SOL     OW 4712   4.112   2.770   4.203 -0.7455 -0.1639 -0.0438
 1526SOL    HW1 4713   4.083   2.838   4.264 -0.1436  0.0192  0.0481
 1526SOL    HW2 4714   4.067   2.790   4.121 -1.2901 -0.2045  0.2459
 1527SOL     OW 4715   0.162   0.496   1.907 -0.5622  0.1322 -0.0098
 1527SOL    HW1 4716   0.211   0.416   1.925  2.5054  1.6009 -1.1255
 1527SOL    HW2 4717   0.183   0.517   1.815 -0.2099  2.8177  0.5992
 1528SOL     OW 4718   2.168   0.781   3.365 -1.1711 -0.0045  0.3163
 1528SOL    HW1 4719   2.239   0.797   3.427  2.1251 -0.7457 -2.8886
 1528SOL    HW2 4720   2.158   0.864   3.319  0.3345 -0.8453 -1.6660
 1529SOL     OW 4721   1.324   4.815   4.665 -1.0268 -0.5070 -0.4829
 1529SOL    HW1 4722   1.245   4.799   4.716 -1.6965  0.3456 -1.2199
 1529SOL    HW2 4723   1.307   4.897   4.619  0.7412  0.3175  0.2155
 1530SOL     OW 4724   2.406   2.337   2.167 -0.3367  0.2694  0.0630
 1530SOL    HW1 4725   2.444   2.375   2.246 -0.2202 -1.8536  1.0768
 1530SOL    HW2 4726   2.431   2.245   2.170 -0.3222  0.1218 -2.4611
 1531SOL     OW 4727   3.320   0.811   3.172  0.0044  0.0655  0.3517
 1531SOL    HW1 4728   3.343   0.743   3.109  0.6273  0.8641 -0.2936
 1531SOL    HW2 4729   3.225   0.823   3.161  0.1181  0.2338 -0.4636
 1532SOL     OW 4730   4.745   3.017   4.290  0.1120 -0.1964 -0.6917
 1532SOL    HW1 4731   4.712   3.071   4.218 -0.5279 -0.4385 -0.5858
 1532SOL    HW2 4732   4.712   2.929   4.271 -0.8030 -0.0895  0.3553
 1533SOL     OW 4733   4.339   0.952   2.510 -0.5533 -0.6970  0.5055
 1533SOL    HW1 4734   4.391   0.891   2.457 -1.0460 -1.5455  0.9670
 1533SOL    HW2 4735   4.403   1.002   2.560 -0.1181 -0.4903 -0.2359
 1534SOL     OW 4736   0.348   2.077   3.744 -0.6104 -0.6075  0.1650
 1534SOL    HW1 4737   0.353   2.037   3.657 -0.1865  0.7002 -0.4379
 1534SOL    HW2 4738   0.289   2.020   3.794  1.4228 -3.0553 -0.0310
 1535SOL     OW 4739   3.556   4.097   0.996 -0.1112  0.0427  0.0085
 1535SOL    HW1 4740   3.641   4.054   1.001  0.4171  1.0405 -0.2890
 1535SOL    HW2 4741   3.524   4.076   0.908  0.3452  0.6233 -0.2986
 1536SOL     OW 4742   3.539   1.137   3.036 -0.2665 -0.5047 -0.6201
 1536SOL    HW1 4743   3.518   1.074   2.967  0.2482  0.6970 -1.9101
 1536SOL    HW2 4744   3.612   1.188   3.001 -2.7053  3.0005 -1.0659
 1537SOL     OW 4745   0.909   2.030   2.016  0.0787  0.5424  0.3327
 1537SOL    HW1 4746   0.926   2.055   2.107  0.0498 -1.6623  1.0050
 1537SOL    HW2 4747   0.828   1.978   2.021 -0.0648  0.6135 -0.9978
 1538SOL     OW 4748   2.615   2.205   1.780  0.1680  0.1347  0.3157
 1538SOL    HW1 4749   2.654   2.253   1.707 -1.2131  2.1184  0.7913
 1538SOL    HW2 4750   2.668   2.127   1.789  1.5470  0.7930 -1.5685
 1539SOL     OW 4751   2.925   4.825   3.531 -0.1716 -0.1482  0.6760
 1539SOL    HW1 4752   2.837   4.812   3.497 -0.3371 -0.5423  1.2393
 1539SOL    HW2 4753   2.954   4.908   3.492 -1.5178  0.9641  1.9436
 1540SOL     OW 4754   2.681  -0.007   2.869 -0.5808  0.0224  0.9493
 1540SOL    HW1 4755   2.607   0.053   2.860 -1.1245 -0.5473  1.5259
 1540SOL    HW2 4756   2.752   0.034   2.819 -1.2134  0.6888  0.5860
 1541SOL     OW 4757   4.038   1.206   3.048  0.1394 -0.1289  0.0715
 1541SOL    HW1 4758   4.070   1.215   3.138  1.1587  0.1399 -0.3020
 1541SOL    HW2 4759   4.092   1.268   2.997 -0.5023 -0.1877 -0.7036
 1542SOL     OW 4760   0.130   0.638   1.349  1.1300 -0.1199 -0.2536
 1542SOL    HW1 4761   0.131   0.696   1.273  0.3577 -1.9931 -1.7930
 1542SOL    HW2 4762   0.125   0.550   1.311 -0.0391 -1.1027  1.9915
 1543SOL     OW 4763   1.092   3.890   1.080 -0.0013  0.3106  0.3495
 1543SOL    HW1 4764   1.171   3.890   1.026  0.6688 -0.0561  1.3154
 1543SOL    HW2 4765   1.023   3.859   1.021  0.7402 -0.2018 -0.2609
 1544SOL     OW 4766   4.966   4.224   1.062 -0.0909 -0.9134 -0.1745
 1544SOL    HW1 4767   5.033   4.236   0.995 -0.0344 -1.4270 -0.2129
 1544SOL    HW2 4768   4.883   4.224   1.012 -0.9080  5.8975  0.2793
 1545SOL     OW 4769   0.150   3.965   2.961 -0.1427 -0.2006  1.0684
 1545SOL    HW1 4770   0.177   4.056   2.967 -0.6392 -0.0170  0.5688
 1545SOL    HW2 4771   0.219   3.922   2.910 -0.9157  0.3249 -0.4554
 1546SOL     OW 4772   4.359   4.513   4.290  0.6443  0.0104 -0.2386
 1546SOL    HW1 4773   4.340   4.599   4.253  1.4584  0.1987 -0.2319
 1546SOL    HW2 4774   4.278   4.463   4.277 -0.6157  1.4117  1.6369
 1547SOL     OW 4775   3.710   0.317   0.955 -0.2835  0.6709  0.2703
 1547SOL    HW1 4776   3.780   0.254   0.941 -0.8457  0.2993 -1.1539
 1547SOL    HW2 4777   3.754   0.402   0.961  0.3635  0.3174  0.6356
 1548SOL     OW 4778   3.799   2.831   4.402 -0.2651 -0.8759  0.2306
 1548SOL    HW1 4779   3.807   2.759   4.464  0.0803 -0.1333  1.0710
 1548SOL    HW2 4780   3.769   2.905   4.455  0.6367 -0.0600 -0.3603
 1549SOL     OW 4781   0.751   0.939   2.730  0.2760 -0.3502 -0.5038
 1549SOL    HW1 4782   0.673   0.980   2.767 -0.5485 -3.8975  2.2626
 1549SOL    HW2 4783   0.727   0.916   2.641 -0.8934  0.8199 -0.5208
 1550SOL     OW 4784   3.259   0.857   3.464  0.2084  0.5160 -0.2904
 1550SOL    HW1 4785   3.217   0.942   3.478  0.9056  0.7952  0.1861
 1550SOL    HW2 4786   3.296   0.862   3.376 -0.5758  0.3452 -0.6314
 1551SOL     OW 4787   3.341   1.950   2.637 -0.3111 -0.7471  0.1592
 1551SOL    HW1 4788   3.270   1.885   2.629 -0.1495 -0.6766 -3.3687
 1551SOL    HW2 4789   3.327   2.009   2.563  2.2383  0.5006  0.5898
 1552SOL     OW 4790   3.292   0.755   1.706 -0.2329 -0.0423 -0.2364
 1552SOL    HW1 4791   3.315   0.815   1.634 -0.3834 -0.7913 -0.9294
 1552SOL    HW2 4792   3.228   0.803   1.758 -1.7281 -0.2274 -1.7962
 1553SOL     OW 4793   2.588   2.825   1.355  0.1079  0.2916 -0.5407
 1553SOL    HW1 4794   2.609   2.754   1.294  3.1704  2.5912 -2.4635
 1553SOL    HW2 4795   2.597   2.785   1.442  0.4899 -1.9654 -1.5366
 1554SOL     OW 4796   4.923   1.161   1.353 -0.3651  0.1842 -0.6064
 1554SOL    HW1 4797   4.872   1.149   1.272  0.9206  2.6334 -1.8780
 1554SOL    HW2 4798   5.013   1.171   1.323  0.3602 -0.2942  1.2942
 1555SOL     OW 4799   1.829   2.060   4.475  0.1835 -0.0527  0.4898
 1555SOL    HW1 4800   1.884   2.101   4.409  0.8319 -1.4550  0.1142
 1555SOL    HW2 4801   1.889   2.008   4.528 -0.3467  0.9136  2.1111
 1556SOL     OW 4802   4.289   3.508   3.343  0.1595  0.0040 -0.1393
 1556SOL    HW1 4803   4.300   3.594   3.302  0.8605 -0.3395 -0.6969
 1556SOL    HW2 4804   4.334   3.515   3.427 -0.7950  0.5360  0.3463
 1557SOL     OW 4805   1.466   0.410   0.133 -0.0764  0.7227  0.9109
 1557SOL    HW1 4806   1.468   0.333   0.190 -1.7354  0.5186  0.7339
 1557SOL    HW2 4807   1.373   0.428   0.121  0.2557  3.5515  1.9896
 1558SOL     OW 4808   2.199   2.529   2.684 -0.2292 -0.0100 -0.1669
 1558SOL    HW1 4809   2.231   2.458   2.628  0.7594  0.2660  0.0373
 1558SOL    HW2 4810   2.158   2.484   2.759  1.4591 -0.3903  0.5625
 1559SOL     OW 4811   2.928   2.819   3.570 -0.1943 -0.1144  0.0464
 1559SOL    HW1 4812   2.912   2.847   3.660  1.1043 -1.3035  0.6900
 1559SOL    HW2 4813   2.986   2.887   3.535 -0.6230  0.3008  0.1181
 1560SOL     OW 4814   4.859   3.580   2.294  0.0728 -0.4726 -0.0610
 1560SOL    HW1 4815   4.886   3.616   2.378  0.4468  0.8178 -0.7023
 1560SOL    HW2 4816   4.893   3.490   2.294 -1.5279 -1.1290  1.8856
 1561SOL     OW 4817   1.335   3.228   1.236 -0.0841 -0.7117 -0.1353
 1561SOL    HW1 4818   1.424   3.248   1.208  0.3232 -2.4116 -0.1706
 1561SOL    HW2 4819   1.318   3.141   1.200 -2.0071 -0.1538 -0.6759
 1562SOL     OW 4820   4.634   1.166   2.096 -0.3354 -0.0762  0.6721
 1562SOL    HW1 4821   4.593   1.082   2.118 -2.0781  0.8590  1.1780
 1562SOL    HW2 4822   4.563   1.230   2.103  0.9408  1.4478  0.2602
 1563SOL     OW 4823   3.125   4.261   3.703  0.0057  0.3330 -0.2764
 1563SOL    HW1 4824   3.106   4.339   3.755 -1.0710 -0.4633  0.5635
 1563SOL    HW2 4825   3.197   4.218   3.750 -1.1142 -0.5029  0.7298
 1564SOL     OW 4826   1.746   4.946   4.647  0.0689 -0.1708 -0.2748
 1564SOL    HW1 4827   1.731   4.853   4.661  0.1197 -0.3116 -1.0993
 1564SOL    HW2 4828   1.673   4.990   4.691  1.0413 -0.4856  1.7696
 1565SOL     OW 4829   2.403   2.888   2.199  0.1737  0.1261 -0.4016
 1565SOL    HW1 4830   2.478   2.898   2.139  0.6723 -1.3872 -0.0622
 1565SOL    HW2 4831   2.346   2.962   2.177  2.2567  2.0119  0.0821
 1566SOL     OW 4832   0.294   0.237   0.091  0.5359  0.1938 -0.2094
 1566SOL    HW1 4833   0.303   0.142   0.103  0.0973 -0.2169 -2.6387
 1566SOL    HW2 4834   0.366   0.275   0.142 -0.6234 -1.2142  2.7618
 1567SOL     OW 4835   2.436   0.451   3.450  0.2439  0.1560 -0.0207
 1567SOL    HW1 4836   2.501   0.381   3.457  0.2548  0.1620 -0.0629
 1567SOL    HW2 4837   2.478   0.518   3.396  0.2471  0.2113  0.0499
 1568SOL     OW 4838   1.213   1.323   3.186 -0.2396 -0.3272  0.3700
 1568SOL    HW1 4839   1.193   1.296   3.096  1.0327  2.1686 -0.7532
 1568SOL    HW2 4840   1.270   1.254   3.219 -0.9490 -1.4388 -0.6097
 1569SOL     OW 4841   4.510   4.487   4.770 -0.0692 -0.4973  0.2781
 1569SOL    HW1 4842   4.546   4.422   4.830  3.2460  0.1418 -0.8176
 1569SOL    HW2 4843   4.540   4.460   4.683  0.8016  2.0481 -0.3003
 1570SOL     OW 4844   1.605   4.125   4.659  0.6094 -0.1681  0.1623
 1570SOL    HW1 4845   1.642   4.037   4.658 -3.5987 -2.2104 -0.1646
 1570SOL    HW2 4846   1.551   4.129   4.580 -0.8304  1.9628  1.1530
 1571SOL     OW 4847   4.658   4.836   3.440  0.4234  0.2625  0.2691
 1571SOL    HW1 4848   4.752   4.823   3.435  0.4919  0.8982 -0.1853
 1571SOL    HW2 4849   4.622   4.747   3.444  1.0861  0.0331  1.6575
 1572SOL     OW 4850   1.508   1.850   0.747 -0.5037 -0.5855 -0.0967
 1572SOL    HW1 4851   1.577   1.843   0.814 -0.7015 -0.0380  0.1648
 1572SOL    HW2 4852   1.483   1.942   0.748 -0.1090 -0.4480 -1.3374
 1573SOL     OW 4853   3.268   1.791   0.112  0.1810 -0.2425 -0.2112
 1573SOL    HW1 4854   3.176   1.780   0.138  0.3867 -0.5282  0.4327
 1573SOL    HW2 4855   3.266   1.798   0.017 -0.7312  2.0470 -0.0957
 1574SOL     OW 4856   4.526   2.279   4.483 -0.0129  0.0653 -0.1241
 1574SOL    HW1 4857   4.590   2.333   4.436 -1.3322 -0.2542 -2.4048
 1574SOL    HW2 4858   4.445   2.330   4.482 -0.8814 -1.2604 -0.9867
 1575SOL     OW 4859   4.711   1.930   1.561  0.4223 -0.1842  0.1148
 1575SOL    HW1 4860   4.646   1.884   1.615  0.9819  0.0406  1.0029
 1575SOL    HW2 4861   4.736   2.006   1.614 -1.1185  1.6836 -1.6887
 1576SOL     OW 4862   1.222   0.280   0.829 -0.0877 -0.6846  0.1066
 1576SOL    HW1 4863   1.192   0.340   0.760 -0.8129 -0.8554  0.2602
 1576SOL    HW2 4864   1.283   0.221   0.785 -1.8905 -1.9507 -0.8591
 1577SOL     OW 4865   1.987   4.389   2.172 -0.6355  1.0446 -0.0173
 1577SOL    HW1 4866   2.076   4.357   2.189 -0.3138  1.1814 -1.3692
 1577SOL    HW2 4867   1.982   4.472   2.220  0.0353  1.1296 -0.0846
 1578SOL     OW 4868   1.107   3.751   0.733 -0.2487 -0.4358  0.0928
 1578SOL    HW1 4869   1.171   3.684   0.757  0.5845 -0.1992 -1.3308
 1578SOL    HW2 4870   1.155   3.834   0.742 -1.4973  0.0929  2.5885
 1579SOL     OW 4871   2.550   2.661   2.601  0.3590 -0.0573  0.4329
 1579SOL    HW1 4872   2.574   2.741   2.555  1.9512  0.5724  2.2022
 1579SOL    HW2 4873   2.628   2.606   2.598  0.3287 -0.2324  1.8312
 1580SOL     OW 4874   3.165   1.948   4.527  0.2606 -0.5123 -0.0061
 1580SOL    HW1 4875   3.148   1.859   4.497 -3.1639 -0.5025  1.4422
 1580SOL    HW2 4876   3.189   1.938   4.619  2.8428 -0.0304 -0.5468
 1581SOL     OW 4877   4.136   1.353   3.954  0.1510 -0.1741 -0.2709
 1581SOL    HW1 4878   4.124   1.388   3.865  2.9081  1.8709  0.0209
 1581SOL    HW2 4879   4.231   1.345   3.963 -0.0375 -0.0109  2.5913
 1582SOL     OW 4880   1.530   1.245   2.292  0.6409  0.3078 -0.2949
 1582SOL    HW1 4881   1.544   1.332   2.329 -0.5351  0.6336 -0.5661
 1582SOL    HW2 4882   1.522   1.260   2.198 -0.7677  0.0866 -0.2261
 1583SOL     OW 4883   4.770   2.068   0.234 -0.1769  0.1518  0.0335
 1583SOL    HW1 4884   4.823   2.140   0.269  0.9065 -1.3651  1.6994
 1583SOL    HW2 4885   4.689   2.071   0.284 -1.5149  2.0604 -2.0579
 1584SOL     OW 4886   2.044   3.780   2.701 -0.4485 -0.8001 -0.3406
 1584SOL    HW1 4887   2.087   3.704   2.740 -0.9912 -0.9801 -0.0967
 1584SOL    HW2 4888   2.108   3.851   2.713  0.3918 -1.3721 -1.2577
 1585SOL     OW 4889   0.672   3.391   2.307  0.5195  0.1350  0.2725
 1585SOL    HW1 4890   0.614   3.347   2.245  1.4563  1.5097 -1.7016
 1585SOL    HW2 4891   0.749   3.335   2.311  0.8393  0.4823 -0.5983
 1586SOL     OW 4892   3.886   2.886   0.634  0.2307  0.0300  0.1887
 1586SOL    HW1 4893   3.929   2.820   0.580  0.5251 -0.2733  0.7816
 1586SOL    HW2 4894   3.796   2.888   0.602 -0.0657 -1.4106  0.8200
 1587SOL     OW 4895   2.814   1.993   2.471  0.0923 -0.0081 -0.3172
 1587SOL    HW1 4896   2.761   2.060   2.427 -0.8654  0.3068  1.2558
 1587SOL    HW2 4897   2.758   1.915   2.470  0.0503  0.0080  0.3372
 1588SOL     OW 4898   2.038   1.877   2.396  0.9060 -0.1871 -0.6627
 1588SOL    HW1 4899   1.978   1.952   2.397  0.7055 -0.3437  0.9780
 1588SOL    HW2 4900   2.125   1.916   2.397  0.8612  0.0233 -2.0966
 1589SOL     OW 4901   3.277   0.190   2.957 -0.9137  0.0520 -0.2085
 1589SOL    HW1 4902   3.336   0.183   3.032 -1.1631 -1.9407 -0.1479
 1589SOL    HW2 4903   3.334   0.197   2.881 -0.3941 -4.1875 -0.3934
 1590SOL     OW 4904   4.596   3.457   3.316 -0.0694  0.0308  0.1726
 1590SOL    HW1 4905   4.556   3.371   3.325  0.0422 -0.0352  0.0381
 1590SOL    HW2 4906   4.616   3.465   3.223 -0.2797  0.2915  0.1487
 1591SOL     OW 4907   2.153   1.284   0.876  0.4514 -0.2870  0.2399
 1591SOL    HW1 4908   2.219   1.225   0.912  0.5009  0.1442  0.8763
 1591SOL    HW2 4909   2.191   1.316   0.795  2.2402  2.0263  1.8750
 1592SOL     OW 4910   2.436   4.837   3.047  0.0891 -0.1028 -0.3482
 1592SOL    HW1 4911   2.506   4.902   3.037  0.5546 -0.8953 -2.9514
 1592SOL    HW2 4912   2.358   4.890   3.064  1.1049  0.8321  2.0076
 1593SOL     OW 4913   0.377   3.803   0.418 -0.7114  0.5356  0.0922
 1593SOL    HW1 4914   0.350   3.738   0.354 -2.1394  0.8292  0.3576
 1593SOL    HW2 4915   0.458   3.769   0.455 -2.1827 -1.9306  1.3666
 1594SOL     OW 4916   1.892   2.999   1.770 -0.0200 -0.4203 -0.4289
 1594SOL    HW1 4917   1.969   2.946   1.755 -0.5928 -0.6944 -2.6538
 1594SOL    HW2 4918   1.887   3.008   1.866  2.8646 -0.1645 -0.2306
 1595SOL     OW 4919   0.220   2.885   1.242  0.3417  0.0233 -0.4399
 1595SOL    HW1 4920   0.235   2.979   1.252  0.5398  0.1574 -1.7943
 1595SOL    HW2 4921   0.161   2.878   1.167 -0.1141 -0.9161 -0.0084
 1596SOL     OW 4922   0.195   1.698   2.754  0.4213  0.2499  0.2098
 1596SOL    HW1 4923   0.116   1.648   2.773  0.5191  0.0267  0.0260
 1596SOL    HW2 4924   0.241   1.704   2.838  2.0998 -2.8613 -0.3500
 1597SOL     OW 4925   2.590   2.502   0.702 -0.0366 -0.3353 -0.6243
 1597SOL    HW1 4926   2.553   2.440   0.766 -1.8549  1.6162  0.3487
 1597SOL    HW2 4927   2.685   2.493   0.713 -0.2429  0.0109  2.5621
 1598SOL     OW 4928   1.973   4.486   3.260  0.0884 -0.2406  0.3973
 1598SOL    HW1 4929   1.900   4.425   3.249  0.5736 -0.5770 -1.2803
 1598SOL    HW2 4930   2.052   4.432   3.252  0.5593  0.0625  2.5145
 1599SOL     OW 4931   4.233   3.009   1.033  0.2270 -0.3656 -0.0537
 1599SOL    HW1 4932   4.238   2.946   0.961  0.6305 -1.6770  1.0659
 1599SOL    HW2 4933   4.306   3.069   1.019 -0.0516 -0.2438 -1.0433
 1600SOL     OW 4934   3.332   0.576   1.890  0.4469  0.1923  0.3803
 1600SOL    HW1 4935   3.419   0.544   1.866  0.6889 -0.4577  1.9876
 1600SOL    HW2 4936   3.318   0.652   1.834  1.8908  0.1044 -0.1511
 1601SOL     OW 4937   4.220   0.958   3.606  0.5625 -0.0053 -0.3822
 1601SOL    HW1 4938   4.223   0.871   3.567 -0.2560  0.0745 -0.6568
 1601SOL    HW2 4939   4.138   0.995   3.574  2.0622  1.8566 -2.3140
 1602SOL     OW 4940   1.320   1.688   2.496 -0.4233  0.4368  0.5070
 1602SOL    HW1 4941   1.347   1.769   2.453 -0.8872 -0.7136 -2.1787
 1602SOL    HW2 4942   1.397   1.631   2.492 -1.1956 -0.5883 -1.3132
 1603SOL     OW 4943   3.738   4.471   3.347  0.6425 -0.3878  0.3488
 1603SOL    HW1 4944   3.771   4.399   3.401  0.0800 -1.6290 -0.8921
 1603SOL    HW2 4945   3.810   4.489   3.286 -0.0122 -1.4802 -0.8069
 1604SOL     OW 4946   0.874   2.227   0.929 -0.1020 -0.1509  0.2566
 1604SOL    HW1 4947   0.854   2.207   1.020 -1.3440 -0.0167  0.0267
 1604SOL    HW2 4948   0.970   2.228   0.925 -0.0015  1.1146  1.8384
 1605SOL     OW 4949   3.291   4.226   0.579  0.1713 -0.3127 -0.0897
 1605SOL    HW1 4950   3.281   4.320   0.592 -2.1300 -0.2838 -1.4196
 1605SOL    HW2 4951   3.335   4.195   0.657 -2.2178  1.3933  2.1017
 1606SOL     OW 4952   3.527   0.272   2.801 -0.1776  0.1357 -0.3135
 1606SOL    HW1 4953   3.609   0.226   2.784 -0.4471  0.5719 -3.1790
 1606SOL    HW2 4954   3.463   0.230   2.745 -1.2756  1.6103 -0.2195
 1607SOL     OW 4955   4.328   2.484   4.550  0.3733 -0.6361 -0.5541
 1607SOL    HW1 4956   4.266   2.411   4.556  0.3421 -0.7835 -2.1400
 1607SOL    HW2 4957   4.273   2.560   4.533  0.4948 -0.4212 -0.0065
 1608SOL     OW 4958   1.344   1.901   1.867 -0.1017 -0.4373 -0.1067
 1608SOL    HW1 4959   1.419   1.910   1.809  1.4161 -1.7346  1.5438
 1608SOL    HW2 4960   1.351   1.813   1.903 -1.8999 -0.2577  0.8202
 1609SOL     OW 4961   4.280   2.887   1.287  0.0797  0.4197 -0.1354
 1609SOL    HW1 4962   4.278   2.936   1.206  1.7969  0.9677  0.1296
 1609SOL    HW2 4963   4.369   2.852   1.293 -0.7709 -1.9358  0.1736
 1610SOL     OW 4964   0.829   4.867   4.190 -0.1635 -0.8553 -0.0776
 1610SOL    HW1 4965   0.917   4.895   4.215  0.6637 -1.8591 -1.6608
 1610SOL    HW2 4966   0.810   4.915   4.109 -1.9705  0.8989  1.2822
 1611SOL     OW 4967   1.906   1.269   3.466  0.2803 -0.9443  0.6536
 1611SOL    HW1 4968   1.811   1.263   3.469  0.0601  0.7156 -1.1220
 1611SOL    HW2 4969   1.930   1.234   3.380  1.2488 -0.9879  0.9230
 1612SOL     OW 4970   3.664   0.834   1.331  0.4022  0.0787 -0.0058
 1612SOL    HW1 4971   3.715   0.884   1.394  0.6584 -2.1716  1.6995
 1612SOL    HW2 4972   3.686   0.872   1.246  1.2313  2.2095  1.0949
 1613SOL     OW 4973   2.293   0.184   0.817 -0.1648 -0.2395  0.2961
 1613SOL    HW1 4974   2.375   0.210   0.858  0.7387 -0.0880 -1.5054
 1613SOL    HW2 4975   2.292   0.088   0.823 -0.8723 -0.1590  2.1038
 1614SOL     OW 4976   4.904   0.719   3.883  0.4332  0.1976  0.4070
 1614SOL    HW1 4977   4.838   0.691   3.821 -1.0660  0.5048  1.7937
 1614SOL    HW2 4978   4.987   0.693   3.844 -0.5807 -1.4311 -0.7556
 1615SOL     OW 4979   2.363   0.581   0.676  0.4218 -0.0483  0.1046
 1615SOL    HW1 4980   2.337   0.647   0.740  2.0908 -0.4079  1.2318
 1615SOL    HW2 4981   2.459   0.577   0.683  0.4885 -1.4677 -1.0604
 1616SOL     OW 4982   4.654   4.440   2.656 -0.2735  1.1829  0.2695
 1616SOL    HW1 4983   4.631   4.381   2.727  0.2352 -0.3852 -0.8166
 1616SOL    HW2 4984   4.697   4.514   2.699  0.8577 -0.1557  1.5214
 1617SOL     OW 4985   2.652   3.927   3.221  0.6231 -0.7041 -0.2007
 1617SOL    HW1 4986   2.602   3.919   3.302 -0.6170 -0.6202 -0.9274
 1617SOL    HW2 4987   2.744   3.923   3.249  0.2740  1.1388  1.4043
 1618SOL     OW 4988   2.712   3.853   2.925  0.0062 -0.0197  0.0413
 1618SOL    HW1 4989   2.730   3.904   3.004  1.0097 -0.0050 -0.1733
 1618SOL    HW2 4990   2.770   3.777   2.932  0.6648  0.3589 -1.0191
 1619SOL     OW 4991   0.871   3.718   3.550 -0.0805  0.0606  0.3942
 1619SOL    HW1 4992   0.964   3.728   3.531 -0.1047  1.3991  0.8787
 1619SOL    HW2 4993   0.849   3.794   3.604 -1.4757 -0.1858  0.2196
 1620SOL     OW 4994   4.914   2.483   3.793  0.6391  0.3613 -0.2837
 1620SOL    HW1 4995   5.008   2.505   3.790  0.6915  0.3498  0.7207
 1620SOL    HW2 4996   4.893   2.453   3.705  1.5403  0.5410 -0.5718
 1621SOL     OW 4997   0.003   3.417   2.510 -0.3666  0.4101  0.2558
 1621SOL    HW1 4998   0.055   3.491   2.481  2.2708 -1.4438 -0.0803
 1621SOL    HW2 4999   0.011   3.416   2.605 -0.3810  0.5189  0.2579
 1622SOL     OW 5000   2.967   3.446   3.607 -0.3768  0.0652  0.2745
 1622SOL    HW1 5001   2.973   3.375   3.671  2.4187  0.0493  0.1065
 1622SOL    HW2 5002   2.996   3.524   3.655  2.2287 -0.0292 -0.9921
 1623SOL     OW 5003   3.202   2.977   1.006  0.0712 -0.0848  0.2181
 1623SOL    HW1 5004   3.276   3.017   1.051  1.2463 -1.3463 -0.5445
 1623SOL    HW2 5005   3.208   3.008   0.916  1.1518 -2.1020 -0.4498
 1624SOL     OW 5006   3.192   0.244   1.613  0.4310  0.1652  0.3939
 1624SOL    HW1 5007   3.201   0.275   1.523 -1.5351 -0.7486 -0.1794
 1624SOL    HW2 5008   3.280   0.249   1.650  1.1577  1.1244 -1.3899
 1625SOL     OW 5009   3.240   1.269   0.748  0.2663 -0.3150  0.9568
 1625SOL    HW1 5010   3.190   1.192   0.778  0.4083 -0.8773 -0.1912
 1625SOL    HW2 5011   3.181   1.311   0.685 -0.5377  1.5498  2.8473
 1626SOL     OW 5012   3.867   3.313   4.891  0.5322 -0.2427 -0.1873
 1626SOL    HW1 5013   3.948   3.276   4.856  0.2502 -1.0785  0.0158
 1626SOL    HW2 5014   3.887   3.406   4.906  0.8010  0.0661 -2.1428
 1627SOL     OW 5015   1.888   4.204   1.319  0.4493  0.2371  0.1695
 1627SOL    HW1 5016   1.977   4.233   1.301 -0.0828  1.7869 -0.1549
 1627SOL    HW2 5017   1.837   4.236   1.244 -0.7993  1.6316  1.5492
 1628SOL     OW 5018   4.281   4.906   4.917  0.0708  0.2452  0.1780
 1628SOL    HW1 5019   4.302   4.990   4.876 -0.5495  1.3273  1.9321
 1628SOL    HW2 5020   4.185   4.901   4.912  0.1730 -1.0743 -1.1613
 1629SOL     OW 5021   3.315   4.673   1.766  0.5625 -0.2798 -0.1345
 1629SOL    HW1 5022   3.336   4.638   1.853  0.5851 -2.1265 -0.8356
 1629SOL    HW2 5023   3.292   4.596   1.715 -0.2305  0.8643 -1.5665
 1630SOL     OW 5024   3.429   5.015   0.640  0.2788 -0.6664  0.1686
 1630SOL    HW1 5025   3.382   4.953   0.584  0.4641 -0.4182 -0.2646
 1630SOL    HW2 5026   3.520   4.985   0.638  0.3537 -0.4312  0.0287
 1631SOL     OW 5027   2.650   1.566   0.745  0.3328  0.0063 -0.1984
 1631SOL    HW1 5028   2.649   1.541   0.838  1.1768 -0.9154 -0.4241
 1631SOL    HW2 5029   2.594   1.644   0.741  0.7048  0.3796  1.1751
 1632SOL     OW 5030   4.703   2.755   1.173 -0.1826 -0.3202  0.9603
 1632SOL    HW1 5031   4.742   2.680   1.218  1.1510 -0.6215 -0.6175
 1632SOL    HW2 5032   4.666   2.719   1.092 -2.5318  0.2143  1.6929
 1633SOL     OW 5033   1.645   4.609   0.964  0.0213 -0.8687 -0.2751
 1633SOL    HW1 5034   1.674   4.660   0.889  0.0520  1.8453  1.4576
 1633SOL    HW2 5035   1.706   4.632   1.034 -2.1089 -0.4617  1.5567
 1634SOL     OW 5036   1.501   4.383   1.223  0.3283  0.0398 -0.2843
 1634SOL    HW1 5037   1.545   4.465   1.244  0.1039 -0.2437  1.4090
 1634SOL    HW2 5038   1.455   4.359   1.303 -3.0382  0.3792 -1.9601
 1635SOL     OW 5039   2.388   4.697   4.614 -0.0236  0.2465 -0.4092
 1635SOL    HW1 5040   2.429   4.627   4.564 -2.0580 -0.1238 -1.6383
 1635SOL    HW2 5041   2.380   4.770   4.552 -1.2209  0.2940 -0.2213
 1636SOL     OW 5042   1.869   3.060   3.687 -0.2777 -0.6423 -1.2174
 1636SOL    HW1 5043   1.804   3.011   3.636  1.4769 -1.7756 -2.4977
 1636SOL    HW2 5044   1.904   3.125   3.626  1.0091 -1.2215 -1.1294
 1637SOL     OW 5045   3.678   1.986   4.235  0.5763 -0.4084 -0.0142
 1637SOL    HW1 5046   3.590   1.951   4.247 -0.2402  1.2809 -0.7484
 1637SOL    HW2 5047   3.735   1.909   4.236 -0.6539 -1.3849  2.4905
 1638SOL     OW 5048   2.286   3.439   4.345  0.2525  0.4419 -0.4173
 1638SOL    HW1 5049   2.284   3.345   4.329  1.0648  0.6654 -2.0756
 1638SOL    HW2 5050   2.254   3.449   4.435 -2.0538 -1.2087 -0.9570
 1639SOL     OW 5051   4.350   2.856   4.006 -0.1173  0.0975 -0.1642
 1639SOL    HW1 5052   4.267   2.896   3.980 -0.0597  0.1825 -0.2205
 1639SOL    HW2 5053   4.327   2.767   4.033 -0.6446  0.9136  2.3670
 1640SOL     OW 5054   3.985   4.912   4.725  0.3215 -0.4066  0.3102
 1640SOL    HW1 5055   3.952   4.984   4.779 -0.9039 -0.6595 -0.0792
 1640SOL    HW2 5056   4.037   4.956   4.657 -1.2909  0.2285 -0.5611
 1641SOL     OW 5057   4.570   3.086   4.889 -0.0464 -0.4600  0.2321
 1641SOL    HW1 5058   4.615   3.170   4.892 -0.7211 -0.1255  0.8974
 1641SOL    HW2 5059   4.588   3.053   4.800 -0.3680  0.6941 -0.2717
 1642SOL     OW 5060   1.254   3.341   0.375 -0.1431 -0.0440 -0.1066
 1642SOL    HW1 5061   1.187   3.335   0.307 -0.1804 -0.5672 -0.0267
 1642SOL    HW2 5062   1.330   3.294   0.339  0.6371  1.6062 -0.7194
 1643SOL     OW 5063   2.076   4.900   3.228  0.0353 -0.2778 -0.1811
 1643SOL    HW1 5064   2.148   4.857   3.274  0.8572 -1.2008 -2.2143
 1643SOL    HW2 5065   2.035   4.830   3.178  0.9267  1.0600 -2.9685
 1644SOL     OW 5066   0.514   1.452   0.986  0.1347 -0.1843 -0.5421
 1644SOL    HW1 5067   0.455   1.485   0.919  1.2840  0.0519 -1.4720
 1644SOL    HW2 5068   0.485   1.494   1.067 -0.5659  0.4063 -1.0924
 1645SOL     OW 5069   0.690   3.992   1.463  0.4453 -0.0261  1.0619
 1645SOL    HW1 5070   0.639   3.999   1.383  1.2124 -1.4767  0.4194
 1645SOL    HW2 5071   0.767   3.940   1.439  3.3120  3.5669  1.4586
 1646SOL     OW 5072   4.277   3.736   1.176 -0.0799  0.4613 -0.4026
 1646SOL    HW1 5073   4.204   3.711   1.233 -0.2725 -2.9998 -1.9120
 1646SOL    HW2 5074   4.326   3.655   1.163  1.2964  1.6181 -3.2436
 1647SOL     OW 5075   1.151   4.555   1.287  0.0507  0.7248 -0.2323
 1647SOL    HW1 5076   1.204   4.541   1.209 -0.4891 -1.4947 -0.2503
 1647SOL    HW2 5077   1.213   4.582   1.355  0.3980  3.7824 -1.5927
 1648SOL     OW 5078   3.285   0.615   3.700  0.6092  0.5430  0.1330
 1648SOL    HW1 5079   3.279   0.586   3.791  1.8885  0.3367  0.1682
 1648SOL    HW2 5080   3.197   0.599   3.664 -0.0239  1.0087  1.4228
 1649SOL     OW 5081   3.051   4.543   4.820  0.1732 -0.6368  0.0638
 1649SOL    HW1 5082   2.961   4.556   4.849 -0.3725 -1.6879 -1.0435
 1649SOL    HW2 5083   3.082   4.631   4.798 -0.7409 -0.3044  0.0520
 1650SOL     OW 5084   1.964   3.962   0.611 -0.0882 -0.3267  0.1356
 1650SOL    HW1 5085   2.001   3.876   0.590 -0.2320 -0.8916  2.0060
 1650SOL    HW2 5086   1.910   3.984   0.536  2.6663 -0.2258 -1.9752
 1651SOL     OW 5087   1.967   3.213   4.408  0.2084 -0.1875  0.5282
 1651SOL    HW1 5088   1.928   3.152   4.346  2.6188 -1.0868 -0.2257
 1651SOL    HW2 5089   2.001   3.284   4.355  0.5503  0.0358  1.0343
 1652SOL     OW 5090   4.376   4.289   4.489  0.4030 -0.1887  0.3553
 1652SOL    HW1 5091   4.310   4.324   4.550  0.3362  0.9814 -0.3592
 1652SOL    HW2 5092   4.358   4.333   4.406  4.2012  2.9206  0.9096
 1653SOL     OW 5093   4.472   2.620   2.678 -0.7118 -0.5429  0.2979
 1653SOL    HW1 5094   4.492   2.675   2.753  0.5408  1.4410 -1.3545
 1653SOL    HW2 5095   4.440   2.682   2.611  1.1727 -1.6816 -1.8092
 1654SOL     OW 5096   3.711   2.554   3.710  0.8758  0.3060 -0.0836
 1654SOL    HW1 5097   3.692   2.636   3.666 -1.0190 -0.7783 -1.4284
 1654SOL    HW2 5098   3.740   2.580   3.798 -3.5527  2.4116  1.0306
 1655SOL     OW 5099   3.682   4.633   1.298  0.0325  0.3306 -0.5092
 1655SOL    HW1 5100   3.745   4.676   1.356 -1.4719  1.3120  0.4723
 1655SOL    HW2 5101   3.609   4.611   1.355  0.0305 -2.0494 -1.3433
 1656SOL     OW 5102   4.756   3.626   0.727  0.0158 -0.3876  0.0722
 1656SOL    HW1 5103   4.740   3.653   0.817 -1.0621  0.0244 -0.2288
 1656SOL    HW2 5104   4.851   3.625   0.719  0.2247  3.3101  0.1469
 1657SOL     OW 5105   0.955   2.843   1.606  0.2123 -0.4030 -0.8756
 1657SOL    HW1 5106   0.912   2.842   1.521 -0.0300  0.4583 -0.7727
 1657SOL    HW2 5107   0.889   2.877   1.666 -0.1046 -2.3140 -0.0496
 1658SOL     OW 5108   0.707   2.117   4.738  0.2329 -0.0327  0.1075
 1658SOL    HW1 5109   0.785   2.063   4.728  0.5782  0.3180  0.8434
 1658SOL    HW2 5110   0.658   2.075   4.809  0.7206  0.8493  0.9937
 1659SOL     OW 5111   3.944   2.290   2.974 -0.4671  0.4513 -0.5131
 1659SOL    HW1 5112   3.935   2.382   2.949 -0.7841  0.6318  0.2466
 1659SOL    HW2 5113   3.867   2.272   3.028  0.2248  0.0824  0.3665
 1660SOL     OW 5114   0.908   2.381   1.577 -0.4951 -0.2762 -0.0125
 1660SOL    HW1 5115   0.986   2.334   1.609  0.3852  0.7711 -0.5405
 1660SOL    HW2 5116   0.909   2.465   1.623 -2.2829 -0.8704  1.2190
 1661SOL     OW 5117   4.134   0.396   2.576  0.6051 -0.2350 -0.6568
 1661SOL    HW1 5118   4.221   0.416   2.611  0.1736 -1.2298  1.1341
 1661SOL    HW2 5119   4.145   0.399   2.481  2.6331 -0.5453 -0.4820
 1662SOL     OW 5120   3.232   2.395   4.834 -0.2731  0.2273  0.4180
 1662SOL    HW1 5121   3.176   2.445   4.774  0.6087 -1.3958 -1.9213
 1662SOL    HW2 5122   3.320   2.430   4.818  0.1370 -1.0312 -0.1797
 1663SOL     OW 5123   2.958   3.426   1.948  0.2183 -0.9085 -0.5417
 1663SOL    HW1 5124   2.943   3.428   2.043  2.8274  1.4041 -0.0416
 1663SOL    HW2 5125   2.881   3.469   1.911  0.4305  0.8236  0.8530
 1664SOL     OW 5126   1.883   3.084   0.514  0.0194  0.2024 -0.2275
 1664SOL    HW1 5127   1.930   3.034   0.580  0.1497  0.4924 -0.1014
 1664SOL    HW2 5128   1.939   3.159   0.495  0.0601  0.0389 -0.7850
 1665SOL     OW 5129   1.276   2.940   1.788  0.4597  0.2100 -0.2364
 1665SOL    HW1 5130   1.367   2.957   1.765  0.2972 -0.5888 -1.6116
 1665SOL    HW2 5131   1.265   2.846   1.776 -0.1622  0.0404  1.4462
 1666SOL     OW 5132   2.968   3.883   1.473  0.3352 -0.5524  0.2208
 1666SOL    HW1 5133   2.877   3.913   1.469  1.1126  1.9418 -0.7630
 1666SOL    HW2 5134   2.991   3.885   1.566 -0.7447 -1.7520  0.5363
 1667SOL     OW 5135   0.132   2.145   2.279 -0.0592  0.1361 -0.0655
 1667SOL    HW1 5136   0.162   2.082   2.214 -1.4963 -0.4184 -0.2266
 1667SOL    HW2 5137   0.153   2.231   2.241  1.5027 -0.1966 -0.0451
 1668SOL     OW 5138   4.950   4.974   0.489  0.4709 -0.0363  0.2224
 1668SOL    HW1 5139   4.930   4.959   0.582 -0.4917 -0.8327 -0.1025
 1668SOL    HW2 5140   4.906   5.056   0.468 -0.2422 -0.4250  0.1885
 1669SOL     OW 5141   3.962   1.209   1.965  0.7720 -0.2456  0.5903
 1669SOL    HW1 5142   4.035   1.153   1.994  1.3776 -0.3258 -1.0145
 1669SOL    HW2 5143   3.996   1.298   1.971  0.6208 -0.2061  0.8805
 1670SOL     OW 5144   2.138   0.690   2.465  0.1806 -0.5919 -0.3978
 1670SOL    HW1 5145   2.056   0.642   2.476 -1.5751  1.5605 -2.8953
 1670SOL    HW2 5146   2.178   0.652   2.387  2.7070 -2.9157  1.8307
 1671SOL     OW 5147   2.148   3.089   1.220 -0.4350  0.0370  0.1279
 1671SOL    HW1 5148   2.067   3.116   1.264 -0.8375  0.1139 -0.6298
 1671SOL    HW2 5149   2.139   2.994   1.211 -0.2625 -0.0044  0.3824
 1672SOL     OW 5150   3.469   3.443   2.998  0.3162 -0.0823 -0.2798
 1672SOL    HW1 5151   3.497   3.419   3.087  1.0772  0.3206 -0.3999
 1672SOL    HW2 5152   3.430   3.363   2.964  0.6286 -0.4444  0.1842
 1673SOL     OW 5153   1.900   2.614   4.867 -0.0347  0.5012 -0.1023
 1673SOL    HW1 5154   1.810   2.639   4.888 -1.0632  0.0080 -3.3440
 1673SOL    HW2 5155   1.900   2.519   4.868  0.2663  0.4877 -0.6658
 1674SOL     OW 5156   4.116   3.582   1.691 -0.1984 -0.1964  0.5347
 1674SOL    HW1 5157   4.211   3.592   1.685 -0.3957  1.0833 -1.5895
 1674SOL    HW2 5158   4.102   3.540   1.776  2.2041  0.1526  1.1930
 1675SOL     OW 5159   2.831   4.723   0.064 -0.0069 -0.1324 -0.2200
 1675SOL    HW1 5160   2.887   4.714   0.141 -0.1366  1.5639  0.1133
 1675SOL    HW2 5161   2.771   4.649   0.069  0.6073 -0.5766  0.7907
 1676SOL     OW 5162   0.927   4.651   3.099  0.0054 -0.4537  0.3270
 1676SOL    HW1 5163   0.971   4.583   3.048  1.6323 -0.5549  1.7775
 1676SOL    HW2 5164   0.969   4.733   3.071 -0.8702 -0.2005 -0.2942
 1677SOL     OW 5165   0.151   0.408   4.453 -0.4812  0.0165 -0.2654
 1677SOL    HW1 5166   0.212   0.338   4.428 -0.3885  0.5245 -1.5634
 1677SOL    HW2 5167   0.065   0.367   4.448 -0.3963 -0.1243 -0.5978
 1678SOL     OW 5168   0.943   0.504   3.184 -0.4845  0.6592 -0.0254
 1678SOL    HW1 5169   1.023   0.556   3.179  1.2675 -1.9381 -1.0206
 1678SOL    HW2 5170   0.950   0.442   3.111 -2.5437 -0.7921  0.9218
 1679SOL     OW 5171   2.224   1.002   4.580  0.4170 -0.4559 -0.0442
 1679SOL    HW1 5172   2.251   0.970   4.666  1.2232  0.0064 -0.1222
 1679SOL    HW2 5173   2.131   0.978   4.574  0.1808  0.0615  1.2154
 1680SOL     OW 5174   3.538   4.968   2.210 -0.3479 -0.1434  0.4952
 1680SOL    HW1 5175   3.593   4.894   2.235  0.3065 -0.4177 -1.5540
 1680SOL    HW2 5176   3.600   5.039   2.192 -0.5605 -0.5056 -2.0193
 1681SOL     OW 5177   3.349   4.576   3.750  0.3851 -0.1032  0.5306
 1681SOL    HW1 5178   3.386   4.568   3.662  0.8722 -3.4149  0.9211
 1681SOL    HW2 5179   3.283   4.507   3.755 -0.6921  0.9770  2.3033
 1682SOL     OW 5180   1.962   4.447   1.897 -0.1897  0.0949 -0.7812
 1682SOL    HW1 5181   1.867   4.454   1.885  0.0003  2.0825 -1.4780
 1682SOL    HW2 5182   1.972   4.397   1.978 -1.8641  0.9206 -0.0138
 1683SOL     OW 5183   3.836   2.049   3.838  0.5559 -0.3255 -0.4310
 1683SOL    HW1 5184   3.801   2.128   3.796 -0.7035 -1.4025 -1.5202
 1683SOL    HW2 5185   3.768   1.983   3.825  2.9432 -2.5889 -2.7337
 1684SOL     OW 5186   2.136   3.150   0.911 -0.4987 -0.2262  0.4968
 1684SOL    HW1 5187   2.114   3.243   0.899  0.5126  0.1581  1.4827
 1684SOL    HW2 5188   2.140   3.139   1.006  1.1754 -0.8377  0.3737
 1685SOL     OW 5189   4.504   3.535   4.491 -0.5170  0.5226  0.6508
 1685SOL    HW1 5190   4.487   3.442   4.504 -1.7901  0.8239  1.2824
 1685SOL    HW2 5191   4.516   3.544   4.397 -3.0043  0.0732  0.2071
 1686SOL     OW 5192   0.464   1.504   1.508 -0.2062  0.1216 -0.3211
 1686SOL    HW1 5193   0.419   1.527   1.589 -0.6491 -0.5115 -0.3747
 1686SOL    HW2 5194   0.544   1.557   1.508 -2.5580  4.0951 -1.9437
 1687SOL     OW 5195   4.079   1.459   2.268 -0.4143 -0.1044 -1.2397
 1687SOL    HW1 5196   3.987   1.457   2.244 -0.2644 -1.7035 -1.7812
 1687SOL    HW2 5197   4.091   1.383   2.325  1.0887 -1.5414 -3.3124
 1688SOL     OW 5198   0.545   4.939   0.161 -0.0677 -0.6368 -0.0771
 1688SOL    HW1 5199   0.456   4.969   0.180  0.2886  2.5678 -2.5655
 1688SOL    HW2 5200   0.535   4.877   0.089 -0.3462 -0.2213 -0.4058
 1689SOL     OW 5201   3.201   3.262   0.543 -0.5153  0.3405 -0.1037
 1689SOL    HW1 5202   3.226   3.297   0.458 -1.1692  1.0128 -0.0295
 1689SOL    HW2 5203   3.271   3.291   0.602 -0.0785 -0.1002 -0.3994
 1690SOL     OW 5204   0.822   3.215   0.340  0.1099 -0.5145 -0.3892
 1690SOL    HW1 5205   0.844   3.214   0.433  1.6351 -2.5188 -0.7287
 1690SOL    HW2 5206   0.750   3.153   0.331 -0.9460  0.6538 -0.4050
 1691SOL     OW 5207   2.233   1.300   0.008  0.5966  0.5139  0.4512
 1691SOL    HW1 5208   2.320   1.320   0.041  0.6416  0.2482  0.4927
 1691SOL    HW2 5209   2.206   1.380  -0.038  1.3368  0.1961 -0.5689
 1692SOL     OW 5210   0.600   2.496   1.256  1.1276  0.5562 -0.1074
 1692SOL    HW1 5211   0.592   2.589   1.231 -0.2720  0.6561  0.6204
 1692SOL    HW2 5212   0.551   2.449   1.189  0.6809  0.4678  0.2803
 1693SOL     OW 5213   4.553   4.241   0.675 -0.3142 -0.6586 -0.1339
 1693SOL    HW1 5214   4.567   4.327   0.715 -0.1509 -0.9833  0.5212
 1693SOL    HW2 5215   4.593   4.248   0.589  0.5727 -0.3782  0.2870
 1694SOL     OW 5216   2.558   4.864   0.556  0.4680 -0.1475  0.4736
 1694SOL    HW1 5217   2.598   4.855   0.470  1.2384  1.8044  0.5760
 1694SOL    HW2 5218   2.474   4.907   0.539  1.1744  1.4201  0.7511
 1695SOL     OW 5219   2.075   1.970   1.193  0.8062 -0.1477  0.2674
 1695SOL    HW1 5220   2.119   1.897   1.237  1.2665  0.1939  0.3863
 1695SOL    HW2 5221   2.019   1.928   1.128  1.1233 -0.6076  0.2806
 1696SOL     OW 5222   4.455   2.796   2.487  0.4953  0.3701  0.3458
 1696SOL    HW1 5223   4.436   2.881   2.527 -1.2866 -0.6323  1.7809
 1696SOL    HW2 5224   4.472   2.816   2.395 -0.6820  2.1967  0.4861
 1697SOL     OW 5225   3.733   4.146   4.548  0.4010 -0.4702 -0.6375
 1697SOL    HW1 5226   3.722   4.224   4.602  1.4598  1.0105 -2.4061
 1697SOL    HW2 5227   3.770   4.081   4.607 -3.1053 -0.6700  1.5977
 1698SOL     OW 5228   0.300   1.069   3.276 -0.0855  0.2920 -0.5916
 1698SOL    HW1 5229   0.294   1.160   3.305 -3.2192 -0.4324  1.5340
 1698SOL    HW2 5230   0.220   1.054   3.226 -0.3764 -1.6729  0.3732
 1699SOL     OW 5231   3.000   2.652   2.361 -0.8146 -0.0600  0.1872
 1699SOL    HW1 5232   2.955   2.734   2.342 -0.4568  0.3767  1.1654
 1699SOL    HW2 5233   2.991   2.601   2.281  0.0998  1.4364 -0.9174
 1700SOL     OW 5234   0.441   0.641   3.870 -0.1056  0.0694  0.2748
 1700SOL    HW1 5235   0.459   0.662   3.962  1.9658 -1.8492  0.3834
 1700SOL    HW2 5236   0.504   0.694   3.821 -0.4972  0.2897 -0.0015
 1701SOL     OW 5237   4.343   0.351   2.758 -0.3418  0.3051  0.2295
 1701SOL    HW1 5238   4.358   0.437   2.797  0.7147 -0.4230  1.5192
 1701SOL    HW2 5239   4.314   0.297   2.831  0.1129 -0.7119 -0.3294
 1702SOL     OW 5240   2.420   2.629   4.276 -0.5890 -0.5187 -0.1020
 1702SOL    HW1 5241   2.368   2.638   4.196 -0.2754 -0.8552 -0.3488
 1702SOL    HW2 5242   2.509   2.611   4.244 -1.0545 -4.2539  0.2612
 1703SOL     OW 5243   0.351   3.034   4.624  0.0046  0.3160  0.2797
 1703SOL    HW1 5244   0.260   3.009   4.608  0.0254  0.6701 -0.4351
 1703SOL    HW2 5245   0.378   3.081   4.545  0.4070  1.3380  0.9849
 1704SOL     OW 5246   3.103   3.025   0.318  0.2643  0.1797  0.3676
 1704SOL    HW1 5247   3.034   3.041   0.254 -0.6312  0.3632  1.3523
 1704SOL    HW2 5248   3.160   3.102   0.311 -0.4365  0.7312  0.5417
 1705SOL     OW 5249   0.574   1.935   1.315 -0.3537 -0.2142  0.5522
 1705SOL    HW1 5250   0.522   2.014   1.330  0.6592  0.4875  0.4458
 1705SOL    HW2 5251   0.510   1.870   1.285 -1.2085  0.5507  0.6636
 1706SOL     OW 5252   1.195   2.040   1.680  0.5941  0.2125 -1.0172
 1706SOL    HW1 5253   1.234   1.985   1.748  1.1953  0.2158 -1.3486
 1706SOL    HW2 5254   1.184   2.126   1.722 -0.0281 -0.0635 -0.6068
 1707SOL     OW 5255   2.247   3.760   2.020 -0.5547 -0.2197 -0.6715
 1707SOL    HW1 5256   2.248   3.712   2.103 -1.9287  1.8198  0.6268
 1707SOL    HW2 5257   2.154   3.779   2.005 -0.0993  1.6380 -1.3120
 1708SOL     OW 5258   1.180   2.085   0.686 -0.0764 -0.4980  0.1155
 1708SOL    HW1 5259   1.273   2.108   0.692  0.4398 -1.8954 -1.6343
 1708SOL    HW2 5260   1.169   2.015   0.751  0.5290 -1.4717 -0.7947
 1709SOL     OW 5261   2.593   2.739   4.629 -0.3723 -0.4499  0.5163
 1709SOL    HW1 5262   2.674   2.690   4.611  0.0456  0.4520 -0.1009
 1709SOL    HW2 5263   2.524   2.672   4.629 -0.0478 -0.8704 -1.9443
 1710SOL     OW 5264   2.849   2.080   2.018 -0.4106 -0.1746  0.6862
 1710SOL    HW1 5265   2.898   2.152   2.059  2.3930 -0.7851 -1.2582
 1710SOL    HW2 5266   2.871   2.003   2.071  1.4305 -0.5682 -0.5548
 1711SOL     OW 5267   1.414   3.469   0.539  0.3667 -0.5279 -0.6062
 1711SOL    HW1 5268   1.339   3.429   0.494  1.8934 -1.9127 -2.0563
 1711SOL    HW2 5269   1.474   3.494   0.469  1.5299 -0.0095  0.5359
 1712SOL     OW 5270   1.738   2.045   3.058  0.5666 -0.2927 -0.2289
 1712SOL    HW1 5271   1.661   2.045   3.115  0.4043  2.1886 -0.3659
 1712SOL    HW2 5272   1.730   1.964   3.007 -1.9127 -0.1274 -0.1947
 1713SOL     OW 5273   3.160   4.558   3.442 -0.2959  1.2900  0.1422
 1713SOL    HW1 5274   3.208   4.640   3.458  2.1634  0.5704 -2.7383
 1713SOL    HW2 5275   3.226   4.489   3.452 -1.6123 -0.1162 -0.4527
 1714SOL     OW 5276   0.059   1.028   4.357  0.7170 -0.2191 -0.6541
 1714SOL    HW1 5277   0.061   1.099   4.421  1.7878 -0.8027 -0.0128
 1714SOL    HW2 5278   0.060   0.948   4.410 -2.0252 -0.7871 -1.2997
 1715SOL     OW 5279   3.941   0.908   0.857  0.0947 -0.5225 -0.3439
 1715SOL    HW1 5280   3.953   0.837   0.794  1.0676  0.1835 -0.9988
 1715SOL    HW2 5281   3.847   0.926   0.855  0.1029 -0.4943 -1.6479
 1716SOL     OW 5282   1.272   0.369   3.709 -0.1525 -0.3385  0.3374
 1716SOL    HW1 5283   1.345   0.338   3.762  0.5174  3.1470  1.7470
 1716SOL    HW2 5284   1.311   0.398   3.627 -0.5916 -1.9335 -0.4743
 1717SOL     OW 5285   4.680   1.401   3.727  0.1916  0.5892 -0.6388
 1717SOL    HW1 5286   4.694   1.354   3.645 -0.3737  1.9800 -1.5720
 1717SOL    HW2 5287   4.759   1.455   3.737  1.6379 -1.6684  1.3014
 1718SOL     OW 5288   4.647   1.586   2.083 -0.0332  0.0631  0.1012
 1718SOL    HW1 5289   4.697   1.522   2.134  2.1238  1.4772 -0.0811
 1718SOL    HW2 5290   4.698   1.598   2.003 -1.2303  0.8214 -0.5662
 1719SOL     OW 5291   2.713   3.180   1.962 -0.2148  0.1622  0.1813
 1719SOL    HW1 5292   2.711   3.275   1.949  0.7611  0.0911 -0.6852
 1719SOL    HW2 5293   2.621   3.155   1.973 -0.6076  1.0636 -0.7980
 1720SOL     OW 5294   2.718   3.822   0.040  0.0611  0.2893  0.2562
 1720SOL    HW1 5295   2.666   3.867  -0.027 -0.1231 -1.8728 -1.1464
 1720SOL    HW2 5296   2.808   3.847   0.022  0.4059 -2.4322 -2.8188
 1721SOL     OW 5297   1.880   1.233   1.778  1.0159  0.5841  0.1393
 1721SOL    HW1 5298   1.847   1.238   1.688  0.2060 -1.0397  0.3133
 1721SOL    HW2 5299   1.801   1.241   1.832  0.8814 -2.5689  0.5806
 1722SOL     OW 5300   3.345   3.389   3.915  0.0242 -0.0446  0.4575
 1722SOL    HW1 5301   3.351   3.356   3.825  1.4540 -0.7092  0.7667
 1722SOL    HW2 5302   3.420   3.351   3.959 -0.6852  0.2386  1.9652
 1723SOL     OW 5303   2.215   3.359   1.786  0.1255 -0.9347  0.3286
 1723SOL    HW1 5304   2.121   3.369   1.797  0.1361  1.4937 -1.1014
 1723SOL    HW2 5305   2.225   3.298   1.713 -0.3517 -0.8809  0.2178
 1724SOL     OW 5306   4.188   4.949   3.556 -0.7097 -0.1715 -0.0969
 1724SOL    HW1 5307   4.104   4.982   3.587 -0.5332 -0.7395  1.0151
 1724SOL    HW2 5308   4.220   5.017   3.496 -0.4479  1.6139  1.9792
 1725SOL     OW 5309   4.108   0.007   4.294  0.4273 -0.0040 -0.6285
 1725SOL    HW1 5310   4.129   0.040   4.381  2.7366  0.6884 -1.3747
 1725SOL    HW2 5311   4.123   0.081   4.236 -1.3776 -0.3571 -1.6214
 1726SOL     OW 5312   2.554   1.618   3.508  0.2198 -0.1700  0.0547
 1726SOL    HW1 5313   2.605   1.569   3.573 -1.0724  0.4714  1.6344
 1726SOL    HW2 5314   2.579   1.709   3.522  1.4600 -0.1704 -1.8137
 1727SOL     OW 5315   0.969   2.092   1.398  0.3633 -0.0171  0.6263
 1727SOL    HW1 5316   0.888   2.117   1.441 -1.4602 -2.3696 -1.2069
 1727SOL    HW2 5317   0.954   2.111   1.305  2.7181  1.3321  0.4287
 1728SOL     OW 5318   4.099   1.208   2.389 -0.3536 -0.4599 -0.7325
 1728SOL    HW1 5319   4.146   1.184   2.469 -1.5307 -0.3355  0.0278
 1728SOL    HW2 5320   4.016   1.161   2.396 -0.1802 -1.0328 -2.2588
 1729SOL     OW 5321   1.632   0.801   3.021 -0.6508  0.9463  0.1576
 1729SOL    HW1 5322   1.726   0.783   3.014 -0.7332  0.4729  0.2674
 1729SOL    HW2 5323   1.591   0.736   2.965 -0.9592  0.6987  0.6655
 1730SOL     OW 5324   0.764   4.144   4.518 -0.1422 -0.3381  0.4958
 1730SOL    HW1 5325   0.810   4.226   4.502  0.2107 -0.4356  0.9781
 1730SOL    HW2 5326   0.748   4.144   4.613  0.1001 -0.9483  0.5404
 1731SOL     OW 5327   0.164   2.303   3.474  0.1032  0.5804  0.3054
 1731SOL    HW1 5328   0.084   2.284   3.523 -0.8077  0.6445 -1.1135
 1731SOL    HW2 5329   0.161   2.244   3.398  0.7667  1.4663 -0.4314
 1732SOL     OW 5330   4.803   4.536   3.870 -0.3578 -0.5717 -0.3028
 1732SOL    HW1 5331   4.864   4.466   3.892 -0.7166 -1.6144 -2.3835
 1732SOL    HW2 5332   4.719   4.507   3.908  0.1570  0.4256  1.7591
 1733SOL     OW 5333   4.835   0.612   3.224  0.0438  0.1193  0.0616
 1733SOL    HW1 5334   4.842   0.671   3.299  1.4094  1.3842 -1.0026
 1733SOL    HW2 5335   4.852   0.525   3.261  3.4969  0.9733  0.8663
 1734SOL     OW 5336   3.028   1.246   0.556 -0.6223 -0.2079  0.5109
 1734SOL    HW1 5337   2.965   1.301   0.603 -0.7405 -0.1341  0.2692
 1734SOL    HW2 5338   2.977   1.171   0.526 -0.3508 -0.7232  1.2956
 1735SOL     OW 5339   1.957   2.711   0.978  0.2037 -0.7491 -0.1896
 1735SOL    HW1 5340   1.900   2.761   0.920  0.1290 -1.0683 -0.3930
 1735SOL    HW2 5341   1.946   2.752   1.064  1.0046  0.3151 -0.5674
 1736SOL     OW 5342   1.518   0.569   0.840 -0.6940  0.3689 -0.6950
 1736SOL    HW1 5343   1.611   0.559   0.861 -0.9049 -0.1255  0.0625
 1736SOL    HW2 5344   1.483   0.619   0.914 -1.5232 -1.6630  0.3445
 1737SOL     OW 5345   2.433   3.637   0.559  0.1817  0.6671  0.1626
 1737SOL    HW1 5346   2.342   3.612   0.575  0.1387 -0.5113 -1.7134
 1737SOL    HW2 5347   2.483   3.560   0.584  0.4078  0.2436 -1.4954
 1738SOL     OW 5348   0.008   2.194   4.943  0.0512  0.1195 -0.0654
 1738SOL    HW1 5349   0.040   2.251   5.013 -2.2709  2.2207 -0.5776
 1738SOL    HW2 5350   0.025   2.105   4.975  0.3478  1.0222  2.5379
 1739SOL     OW 5351   2.233   4.660   2.642  0.5032  0.1295  0.3959
 1739SOL    HW1 5352   2.194   4.645   2.556 -0.6684  2.4118  0.4362
 1739SOL    HW2 5353   2.298   4.591   2.652  1.8081  0.6904 -2.9960
 1740SOL     OW 5354   0.852   3.416   3.259  0.1599  0.1524  0.3540
 1740SOL    HW1 5355   0.775   3.392   3.208  0.1821  0.7412  0.0231
 1740SOL    HW2 5356   0.856   3.512   3.252  0.6808  0.1625  0.7114
 1741SOL     OW 5357   3.736   1.372   2.419 -0.1854  0.0206  0.6372
 1741SOL    HW1 5358   3.747   1.378   2.324 -2.2447 -2.5374  0.1275
 1741SOL    HW2 5359   3.799   1.435   2.455  1.4904  0.2188 -2.3623
 1742SOL     OW 5360   4.292   2.566   1.610  0.4427 -0.0909 -0.2268
 1742SOL    HW1 5361   4.293   2.477   1.644  0.3294 -0.4834 -1.2291
 1742SOL    HW2 5362   4.206   2.601   1.635  1.1945  0.4107  1.8130
 1743SOL     OW 5363   1.561   1.508   0.991 -0.3290  0.9259  0.3655
 1743SOL    HW1 5364   1.621   1.464   1.051 -1.5091  0.3575  1.1713
 1743SOL    HW2 5365   1.614   1.575   0.949  2.3647 -2.8742 -3.0293
 1744SOL     OW 5366   2.785   4.527   4.546  0.2374  0.1985  0.3053
 1744SOL    HW1 5367   2.787   4.479   4.629  0.2452  2.0135  1.3998
 1744SOL    HW2 5368   2.833   4.608   4.564 -0.4939  1.0132 -1.2155
 1745SOL     OW 5369   1.519   1.900   3.976 -0.0290 -0.0235  0.4905
 1745SOL    HW1 5370   1.549   1.973   3.921  0.6225 -0.8742 -0.3226
 1745SOL    HW2 5371   1.438   1.870   3.933 -2.0521  2.0909  2.5256
 1746SOL     OW 5372   1.034   2.562   2.658  0.0454  0.7355  0.1293
 1746SOL    HW1 5373   1.117   2.527   2.689  0.4059  1.9847  0.6572
 1746SOL    HW2 5374   1.051   2.656   2.647 -1.6247  1.2393  1.4226
 1747SOL     OW 5375   0.596   4.907   0.586  0.4538  0.4211  0.3978
 1747SOL    HW1 5376   0.510   4.885   0.621  0.2104 -0.2652 -0.5619
 1747SOL    HW2 5377   0.579   4.976   0.521  0.7410  0.8772  0.8041
 1748SOL     OW 5378   3.041   2.895   2.985  0.2709  0.2847  0.2958
 1748SOL    HW1 5379   3.001   2.811   3.009 -1.6940  0.8624 -0.7255
 1748SOL    HW2 5380   2.990   2.961   3.032 -0.3061  1.0732 -1.3474
 1749SOL     OW 5381   2.805   1.203   2.850 -0.4658 -0.1031 -0.1101
 1749SOL    HW1 5382   2.821   1.248   2.933 -3.4698 -0.1725  0.6447
 1749SOL    HW2 5383   2.808   1.110   2.871  1.3999 -0.2314 -0.7324
 1750SOL     OW 5384   2.297   3.943   1.770 -0.0721  0.4934 -0.0769
 1750SOL    HW1 5385   2.255   3.939   1.685  0.3739  2.0161 -0.4000
 1750SOL    HW2 5386   2.274   4.029   1.805  2.2486  1.1797 -0.0288
 1751SOL     OW 5387   4.527   1.650   3.828  0.5183 -0.3944  0.0509
 1751SOL    HW1 5388   4.480   1.733   3.840 -3.1030 -2.2060 -0.0276
 1751SOL    HW2 5389   4.483   1.589   3.887  3.1624 -2.2826  0.2398
 1752SOL     OW 5390   3.672   4.103   0.568 -0.6075 -0.4255  0.2556
 1752SOL    HW1 5391   3.631   4.101   0.655 -0.1394  0.1225  0.4980
 1752SOL    HW2 5392   3.693   4.011   0.550  1.5848 -0.3427  1.8692
 1753SOL     OW 5393   2.238   0.101   2.437  0.1793  0.3235 -0.0975
 1753SOL    HW1 5394   2.192   0.032   2.390 -0.2052 -0.4211  1.3039
 1753SOL    HW2 5395   2.288   0.055   2.505  1.3647  1.2896 -0.2799
 1754SOL     OW 5396   4.447   1.845   2.999  0.6884 -0.0827 -0.1798
 1754SOL    HW1 5397   4.404   1.785   2.939 -0.0717  1.5745 -1.3850
 1754SOL    HW2 5398   4.454   1.927   2.951  1.4797  0.8878  1.4634
 1755SOL     OW 5399   4.076   2.666   0.982  0.6178 -0.9155  0.0472
 1755SOL    HW1 5400   4.007   2.727   1.008  0.7191 -0.6301 -0.3592
 1755SOL    HW2 5401   4.100   2.622   1.064  0.4121 -0.5495  0.3085
 1756SOL     OW 5402   0.671   0.900   0.644 -0.3079 -0.0472  0.0578
 1756SOL    HW1 5403   0.598   0.839   0.640 -0.3830 -0.1316  1.9293
 1756SOL    HW2 5404   0.693   0.906   0.737  1.3151  0.8713 -0.3399
 1757SOL     OW 5405   2.836   2.767   3.975  0.0153  0.2558 -0.1727
 1757SOL    HW1 5406   2.925   2.763   4.011 -0.0842 -0.0816  0.0388
 1757SOL    HW2 5407   2.843   2.829   3.901  0.6215 -0.4439 -0.7212
 1758SOL     OW 5408   2.912   1.833   2.210  0.0513  0.8679  0.1262
 1758SOL    HW1 5409   2.895   1.877   2.293  0.1515 -0.5120  0.9176
 1758SOL    HW2 5410   2.999   1.795   2.221  0.7779  2.0567 -1.2635
 1759SOL     OW 5411   1.158   1.704   4.092  0.2796  0.4240 -0.3094
 1759SOL    HW1 5412   1.082   1.688   4.036  0.6682 -0.0236 -0.7152
 1759SOL    HW2 5413   1.144   1.792   4.127 -0.8405  0.0354  0.2678
 1760SOL     OW 5414   1.325   0.819   3.286  0.3678  0.2196  0.2465
 1760SOL    HW1 5415   1.348   0.860   3.202  0.0486 -0.4899 -0.2006
 1760SOL    HW2 5416   1.409   0.802   3.328  0.5130  1.1647  0.3687
 1761SOL     OW 5417   4.300   0.538   4.880  0.3907 -0.0429  0.0751
 1761SOL    HW1 5418   4.301   0.482   4.802 -0.1380  1.2862 -0.9333
 1761SOL    HW2 5419   4.371   0.601   4.865 -0.2069  0.7021  0.2872
 1762SOL     OW 5420   4.189   1.419   0.118  0.2982  0.2689 -0.3517
 1762SOL    HW1 5421   4.193   1.346   0.180 -1.1642 -1.0760 -1.7438
 1762SOL    HW2 5422   4.214   1.380   0.034 -1.1847  1.1827 -1.2610
 1763SOL     OW 5423   0.359   4.448   4.500  0.3249 -0.3902  0.0091
 1763SOL    HW1 5424   0.342   4.452   4.594 -0.2272 -1.0434 -0.0552
 1763SOL    HW2 5425   0.285   4.494   4.460 -0.3493 -1.5854 -0.1763
 1764SOL     OW 5426   4.847   1.203   0.439 -0.3876 -0.1926 -0.2035
 1764SOL    HW1 5427   4.859   1.296   0.419  0.1154 -0.4735 -1.2831
 1764SOL    HW2 5428   4.863   1.158   0.356  2.7057 -1.5276  0.9451
 1765SOL     OW 5429   0.401   2.449   0.515 -0.1235  0.0488  0.1247
 1765SOL    HW1 5430   0.312   2.461   0.547 -0.0692 -1.3463  0.8567
 1765SOL    HW2 5431   0.456   2.484   0.586 -0.0598  2.3259 -0.9554
 1766SOL     OW 5432   3.717   3.809   2.089 -0.3133  0.0263  0.5348
 1766SOL    HW1 5433   3.693   3.859   2.011  0.7404 -0.8429 -0.3827
 1766SOL    HW2 5434   3.649   3.742   2.097  0.2162 -0.6569 -0.3979
 1767SOL     OW 5435   1.338   0.265   3.447 -0.5516  0.1045 -0.1661
 1767SOL    HW1 5436   1.365   0.186   3.400 -0.7921 -0.9719  1.4414
 1767SOL    HW2 5437   1.252   0.243   3.482  0.4011  0.1219  2.3660
 1768SOL     OW 5438   4.048   2.689   0.519  0.0364  0.2983  0.4079
 1768SOL    HW1 5439   4.109   2.692   0.445  0.5129 -0.3266  0.7686
 1768SOL    HW2 5440   4.104   2.694   0.597 -0.3976  0.0317  0.7390
 1769SOL     OW 5441   0.887   3.980   3.284 -0.0602 -0.6765 -0.1221
 1769SOL    HW1 5442   0.804   3.992   3.329 -0.2056  0.2410 -0.6007
 1769SOL    HW2 5443   0.950   4.028   3.338 -0.6946  2.8815 -2.2052
 1770SOL     OW 5444   1.699   2.223   0.075  0.1242 -0.3857 -0.2646
 1770SOL    HW1 5445   1.668   2.305   0.113 -1.7279 -1.6569  1.1240
 1770SOL    HW2 5446   1.794   2.224   0.090 -0.0268  0.9631  0.7669
 1771SOL     OW 5447   2.382   1.836   4.021  0.1317 -0.4550 -0.2088
 1771SOL    HW1 5448   2.287   1.844   4.008  0.0638 -1.5732 -0.5330
 1771SOL    HW2 5449   2.417   1.817   3.934  0.4457 -1.6812  0.1697
 1772SOL     OW 5450   0.996   2.141   2.267 -0.0351 -0.0182 -0.5046
 1772SOL    HW1 5451   0.958   2.089   2.338  0.2294 -0.3592 -0.6086
 1772SOL    HW2 5452   0.937   2.215   2.257 -0.1851 -0.0746 -0.0646
 1773SOL     OW 5453   4.541   4.546   3.155 -0.6516 -0.2552 -0.1495
 1773SOL    HW1 5454   4.553   4.560   3.249  1.5119  0.2496 -0.4606
 1773SOL    HW2 5455   4.455   4.583   3.136 -0.5990  0.7322  1.4108
 1774SOL     OW 5456   4.292   2.171   3.290 -0.3219 -0.0126 -0.3514
 1774SOL    HW1 5457   4.268   2.262   3.310 -0.6493 -0.1721 -0.0050
 1774SOL    HW2 5458   4.376   2.158   3.333 -0.6215 -0.0951  0.2099
 1775SOL     OW 5459   0.687   3.050   3.094  0.0989  0.4832 -0.3703
 1775SOL    HW1 5460   0.611   3.011   3.050 -0.5954  1.0563  0.2875
 1775SOL    HW2 5461   0.665   3.047   3.187  2.0541 -1.8029  0.1219
 1776SOL     OW 5462   2.458   2.943   2.731 -0.6516  0.1487 -0.1455
 1776SOL    HW1 5463   2.437   2.851   2.717  0.4821  0.1082 -1.7733
 1776SOL    HW2 5464   2.448   2.983   2.645  3.0870  0.6551 -0.4903
 1777SOL     OW 5465   3.574   0.524   1.765 -0.3036 -1.3251  0.0922
 1777SOL    HW1 5466   3.655   0.509   1.814  0.3431  4.2938  1.3511
 1777SOL    HW2 5467   3.603   0.548   1.678 -0.8233 -1.5856 -0.1566
 1778SOL     OW 5468   3.493   2.430   0.483  0.2499 -0.5097 -0.6112
 1778SOL    HW1 5469   3.578   2.386   0.476  1.1169  0.8667  0.6524
 1778SOL    HW2 5470   3.483   2.448   0.577 -1.5220 -0.7662 -0.7188
 1779SOL     OW 5471   2.574   3.144   3.922 -0.0555  0.2976 -0.0313
 1779SOL    HW1 5472   2.551   3.056   3.950  1.1930 -0.1732 -0.4023
 1779SOL    HW2 5473   2.496   3.177   3.878 -1.2071  0.1411  1.8071
 1780SOL     OW 5474   4.526   2.230   3.829 -0.0541 -0.6257 -0.0697
 1780SOL    HW1 5475   4.598   2.260   3.885  0.9442 -2.0988 -0.5129
 1780SOL    HW2 5476   4.463   2.190   3.890 -0.4664  0.5586  0.3055
 1781SOL     OW 5477   0.339   4.183   4.109 -0.3491 -0.7940  0.1152
 1781SOL    HW1 5478   0.380   4.269   4.122  0.2637 -1.1226  0.3527
 1781SOL    HW2 5479   0.341   4.142   4.195  0.7636 -1.6633 -0.3037
 1782SOL     OW 5480   4.113   1.924   1.184 -1.0021  1.1690 -0.2372
 1782SOL    HW1 5481   4.182   1.965   1.236  0.8631 -0.5293 -1.2493
 1782SOL    HW2 5482   4.088   1.847   1.234 -0.2137  0.3116 -1.1305
 1783SOL     OW 5483   4.936   2.243   0.345  0.4192 -0.3066  0.6078
 1783SOL    HW1 5484   5.002   2.180   0.373  1.9577  0.7631 -0.4263
 1783SOL    HW2 5485   4.930   2.306   0.418  0.7744 -0.2359  0.5766
 1784SOL     OW 5486   0.923   2.660   3.985 -0.1850  1.1941  0.1776
 1784SOL    HW1 5487   0.876   2.611   4.053 -1.0475  1.3745 -0.2841
 1784SOL    HW2 5488   0.961   2.735   4.031 -0.2426  0.9843  0.5726
 1785SOL     OW 5489   2.028   2.724   0.651  0.0299 -0.0544 -0.1291
 1785SOL    HW1 5490   2.047   2.807   0.696 -1.8141 -0.1374  0.8718
 1785SOL    HW2 5491   1.947   2.740   0.604 -1.4218 -1.8223  1.6283
 1786SOL     OW 5492   2.812   4.990   3.151 -0.2238  0.1686  0.2963
 1786SOL    HW1 5493   2.764   4.951   3.223 -0.0247 -1.5588 -0.4692
 1786SOL    HW2 5494   2.745   5.023   3.092 -0.4354 -0.4945  0.1631
 1787SOL     OW 5495   0.132   3.634   2.100 -0.8076  0.2114 -0.6856
 1787SOL    HW1 5496   0.085   3.568   2.151 -0.4841  0.7646  0.3369
 1787SOL    HW2 5497   0.214   3.591   2.075 -0.7160  0.1323 -0.2517
 1788SOL     OW 5498   4.680   1.508   4.863  0.3932 -0.3056  0.1558
 1788SOL    HW1 5499   4.621   1.446   4.820  1.5812 -0.2523 -1.6008
 1788SOL    HW2 5500   4.658   1.499   4.956 -3.5927  0.9127 -0.4426
 1789SOL     OW 5501   4.461   1.300   2.667 -0.1716  0.3254  0.1550
 1789SOL    HW1 5502   4.514   1.356   2.724  0.9744 -2.5450  2.1490
 1789SOL    HW2 5503   4.514   1.288   2.589  1.0437 -0.5025  1.0761
 1790SOL     OW 5504   0.586   3.725   2.766 -0.5819  0.4049 -0.0440
 1790SOL    HW1 5505   0.623   3.688   2.846 -1.0881  1.3233  0.6206
 1790SOL    HW2 5506   0.544   3.806   2.793  0.5405  1.5445 -1.4714
 1791SOL     OW 5507   3.534   3.866   3.565  0.1320 -0.0657 -0.4167
 1791SOL    HW1 5508   3.517   3.773   3.553 -0.5761  0.2350 -2.0785
 1791SOL    HW2 5509   3.575   3.873   3.651 -0.1034 -1.8650 -0.1330
 1792SOL     OW 5510   1.455   2.912   0.548 -0.0601 -0.3614  0.4087
 1792SOL    HW1 5511   1.520   2.933   0.481  0.7523  2.3881  1.8892
 1792SOL    HW2 5512   1.379   2.882   0.499  1.3617 -0.9262 -1.5540
 1793SOL     OW 5513   0.569   1.460   2.634  0.3288 -0.3440 -0.5551
 1793SOL    HW1 5514   0.570   1.439   2.541  1.2107 -2.1228 -0.1796
 1793SOL    HW2 5515   0.560   1.376   2.678  2.0187  0.2175  1.0056
 1794SOL     OW 5516   4.033   3.846   1.733 -0.2353 -0.2349  0.4207
 1794SOL    HW1 5517   4.013   3.831   1.825 -0.8775 -2.5982 -0.0496
 1794SOL    HW2 5518   4.078   3.767   1.704 -2.2809 -0.6758 -1.8827
 1795SOL     OW 5519   1.107   1.019   3.661  0.2575 -0.3511 -0.1649
 1795SOL    HW1 5520   1.063   1.026   3.746 -1.5089 -0.5865 -1.0156
 1795SOL    HW2 5521   1.147   0.932   3.662 -0.9858 -0.9398 -0.1231
 1796SOL     OW 5522   4.681   3.927   1.724 -0.1776  0.0354  0.2880
 1796SOL    HW1 5523   4.753   3.863   1.727  0.4514  0.7056 -0.0460
 1796SOL    HW2 5524   4.602   3.875   1.736  0.3356 -0.7824  0.2120
 1797SOL     OW 5525   0.874   3.065   4.130 -0.3102 -0.2490  0.1382
 1797SOL    HW1 5526   0.843   3.048   4.219 -0.6497 -0.8916 -0.0968
 1797SOL    HW2 5527   0.930   3.142   4.139  4.3772 -3.3818  1.9930
 1798SOL     OW 5528   3.003   3.771   2.927  0.1540 -0.2986 -0.1085
 1798SOL    HW1 5529   3.011   3.861   2.957  0.1549 -1.1976  2.9460
 1798SOL    HW2 5530   3.054   3.768   2.846  1.3748  2.0852  0.4732
 1799SOL     OW 5531   3.028   2.337   3.092  0.7215 -0.1439  0.4002
 1799SOL    HW1 5532   2.982   2.326   3.175  0.4821  1.8286  0.5615
 1799SOL    HW2 5533   2.985   2.275   3.033 -0.4839 -0.1017  1.1943
 1800SOL     OW 5534   2.095   1.583   4.639 -0.9768  0.4087  0.0189
 1800SOL    HW1 5535   2.124   1.623   4.558 -2.2809 -0.3620 -0.8580
 1800SOL    HW2 5536   2.154   1.508   4.651 -1.1940  0.1405 -0.5686
 1801SOL     OW 5537   4.940   2.816   1.716  0.6840 -0.6334 -0.0941
 1801SOL    HW1 5538   4.983   2.760   1.781  1.1827  1.1614  1.1876
 1801SOL    HW2 5539   5.001   2.818   1.642  1.2262 -0.8068  0.3440
 1802SOL     OW 5540   3.639   1.875   3.841 -0.1454  0.1897 -0.2725
 1802SOL    HW1 5541   3.571   1.913   3.897 -0.8054 -0.4735 -0.6064
 1802SOL    HW2 5542   3.636   1.782   3.860  0.0966  0.0483 -0.9125
 1803SOL     OW 5543   2.626   3.779   2.320 -0.5051  0.3048 -0.2431
 1803SOL    HW1 5544   2.652   3.760   2.410 -0.1372 -0.2287 -0.4586
 1803SOL    HW2 5545   2.667   3.863   2.300 -1.3877  0.9197  0.4076
 1804SOL     OW 5546   2.778   1.734   2.826  0.3146  0.3657 -0.2902
 1804SOL    HW1 5547   2.734   1.812   2.792 -0.3888  0.1370  0.0562
 1804SOL    HW2 5548   2.710   1.690   2.878  0.1550 -1.3453 -1.8068
 1805SOL     OW 5549   3.122   1.101   4.057  0.6569  0.0153  0.2299
 1805SOL    HW1 5550   3.205   1.149   4.050 -0.5823  2.5917  1.8307
 1805SOL    HW2 5551   3.106   1.094   4.151 -2.3555  2.3002  0.0204
 1806SOL     OW 5552   0.042   1.514   4.319 -0.1912 -0.3152  0.3276
 1806SOL    HW1 5553   0.115   1.473   4.273 -0.0149  2.5030 -2.1983
 1806SOL    HW2 5554   0.083   1.568   4.386 -0.0444 -0.0419  0.0217
 1807SOL     OW 5555   2.963   2.075   1.001 -0.2144  0.3387 -0.4035
 1807SOL    HW1 5556   3.034   2.023   0.963 -0.5955  0.9617 -2.0835
 1807SOL    HW2 5557   2.902   2.011   1.036  0.6951 -0.2369  0.1541
 1808SOL     OW 5558   4.210   4.992   3.084 -0.0626  0.4814 -0.3488
 1808SOL    HW1 5559   4.152   4.932   3.132  0.0438  0.6182 -0.0480
 1808SOL    HW2 5560   4.278   4.936   3.047  0.0965  0.4258  0.0201
 1809SOL     OW 5561   3.149   1.412   1.405 -0.4409  0.0293  0.4158
 1809SOL    HW1 5562   3.184   1.448   1.323 -2.0417  0.1457 -0.2631
 1809SOL    HW2 5563   3.140   1.318   1.387 -0.9975  0.0874  0.3601
 1810SOL     OW 5564   1.495   3.640   1.848  0.3050  0.0174  0.4354
 1810SOL    HW1 5565   1.540   3.580   1.908 -0.7009  1.9062  3.2533
 1810SOL    HW2 5566   1.553   3.715   1.842 -0.7647  0.9342  1.1823
 1811SOL     OW 5567   4.757   0.074   1.600 -0.5694  0.3057 -0.3214
 1811SOL    HW1 5568   4.836   0.019   1.598 -0.2947  0.6868 -0.0927
 1811SOL    HW2 5569   4.715   0.052   1.683  0.3990  1.6119  0.5543
 1812SOL     OW 5570   2.880   0.160   0.113 -0.1950 -0.0366 -0.1104
 1812SOL    HW1 5571   2.787   0.145   0.131 -0.3168  0.5458 -0.2046
 1812SOL    HW2 5572   2.886   0.161   0.017 -0.0725 -0.1888 -0.1040
 1813SOL     OW 5573   2.406   0.616   2.537 -0.0170 -0.1949  0.1802
 1813SOL    HW1 5574   2.347   0.581   2.469 -0.0773  0.5311 -0.1453
 1813SOL    HW2 5575   2.386   0.564   2.615 -0.6181 -0.4032 -0.1078
 1814SOL     OW 5576   0.353   1.474   2.203  0.4956 -0.6278  0.8381
 1814SOL    HW1 5577   0.303   1.396   2.226  1.2440 -1.3795 -0.0278
 1814SOL    HW2 5578   0.364   1.469   2.108  0.4723  0.5890  0.7487
 1815SOL     OW 5579   0.230   2.697   1.575 -0.5426  0.4463 -0.1318
 1815SOL    HW1 5580   0.261   2.774   1.526  0.4040 -0.2977 -0.7230
 1815SOL    HW2 5581   0.267   2.708   1.663  0.8462 -0.0828 -0.6365
 1816SOL     OW 5582   0.058   3.691   4.502 -0.7433 -0.4238 -0.2042
 1816SOL    HW1 5583   0.004   3.658   4.429 -0.4639  0.4374 -0.8155
 1816SOL    HW2 5584   0.138   3.722   4.460 -0.1904 -0.7588  0.5864
 1817SOL     OW 5585   1.216   0.139   0.426  0.2797  0.3854  0.2302
 1817SOL    HW1 5586   1.194   0.049   0.403  0.1402  0.5194 -0.1628
 1817SOL    HW2 5587   1.272   0.131   0.504  2.8597 -0.2027 -1.5662
 1818SOL     OW 5588   2.074   1.898   4.058 -0.0354 -0.0846  0.0113
 1818SOL    HW1 5589   2.019   1.820   4.071 -0.1461  0.1281  0.9208
 1818SOL    HW2 5590   2.011   1.971   4.060  0.4183  0.4111  3.6645
 1819SOL     OW 5591   1.585   4.131   0.809 -0.7935 -0.2095  0.4658
 1819SOL    HW1 5592   1.631   4.197   0.758 -2.4942  0.2769 -0.4886
 1819SOL    HW2 5593   1.646   4.057   0.813  0.6818  0.9615  0.6024
 1820SOL     OW 5594   1.182   3.450   1.130 -0.0648 -0.4473 -0.5417
 1820SOL    HW1 5595   1.101   3.450   1.079 -2.3818  0.5483  2.7921
 1820SOL    HW2 5596   1.186   3.363   1.170 -0.7372  0.1691  0.9573
 1821SOL     OW 5597   0.184   0.529   1.600  0.3042  0.8074 -0.3138
 1821SOL    HW1 5598   0.142   0.574   1.527  0.9501 -0.2798 -1.3806
 1821SOL    HW2 5599   0.278   0.539   1.585  0.4756 -0.9291 -0.6365
 1822SOL     OW 5600   2.053   2.322   1.685 -0.5313 -0.3451 -0.3354
 1822SOL    HW1 5601   2.132   2.290   1.641  0.5094 -0.2507  1.3411
 1822SOL    HW2 5602   2.072   2.310   1.778 -1.6948  1.5261  0.1924
 1823SOL     OW 5603   1.308   3.003   4.059 -0.4261 -0.1370  0.1104
 1823SOL    HW1 5604   1.329   3.027   3.969 -0.7405 -2.0349 -0.5206
 1823SOL    HW2 5605   1.392   3.006   4.105 -0.0167 -0.4930 -0.5951
 1824SOL     OW 5606   1.250   1.611   0.069  0.3036  0.4255 -0.3558
 1824SOL    HW1 5607   1.187   1.672   0.031 -0.2162  0.3561  0.3848
 1824SOL    HW2 5608   1.257   1.637   0.160  0.5510 -0.2353 -0.1824
 1825SOL     OW 5609  -0.014   4.033   3.918  0.1498  0.0311 -0.1507
 1825SOL    HW1 5610   0.020   4.036   3.829 -0.1859  1.6414 -0.2582
 1825SOL    HW2 5611   0.042   3.969   3.963  0.6460 -0.4182 -1.3799
 1826SOL     OW 5612   3.696   3.854   0.146 -0.1958 -0.3683  0.8013
 1826SOL    HW1 5613   3.643   3.903   0.210  0.8977  1.2705  0.5162
 1826SOL    HW2 5614   3.774   3.827   0.195 -0.1976 -0.7060  0.6205
 1827SOL     OW 5615   0.081   3.849   1.964 -0.1445 -0.1543 -0.2662
 1827SOL    HW1 5616   0.167   3.891   1.957 -0.3635  0.5065  0.8102
 1827SOL    HW2 5617   0.100   3.761   1.995  0.0590  0.6187  1.9860
 1828SOL     OW 5618   2.644   0.674   2.978 -0.3047 -0.3807 -0.2532
 1828SOL    HW1 5619   2.624   0.735   2.908  1.4265  1.1827  0.5366
 1828SOL    HW2 5620   2.636   0.587   2.938 -2.0055  0.3626 -1.6170
 1829SOL     OW 5621   2.128   1.098   2.953 -0.7413 -0.0326 -0.7237
 1829SOL    HW1 5622   2.181   1.019   2.964 -0.7146 -0.1032 -1.3367
 1829SOL    HW2 5623   2.162   1.138   2.873 -1.0493  0.3690 -0.6533
 1830SOL     OW 5624   1.811   2.737   4.580  0.9406 -0.0168  0.5427
 1830SOL    HW1 5625   1.826   2.685   4.659  1.2481  1.7905  1.7416
 1830SOL    HW2 5626   1.896   2.775   4.559  0.9597 -0.8108 -0.9490
 1831SOL     OW 5627   0.033   0.044   3.179  0.1274  0.1647 -0.5458
 1831SOL    HW1 5628   0.001  -0.037   3.219  0.4489 -0.9322 -2.3969
 1831SOL    HW2 5629   0.127   0.045   3.197  0.4128 -0.7381 -1.9112
 1832SOL     OW 5630   2.746   2.495   4.898 -0.3364 -0.0526 -0.3185
 1832SOL    HW1 5631   2.771   2.550   4.824 -1.7462  2.1501  0.7417
 1832SOL    HW2 5632   2.668   2.448   4.868  0.3995 -0.8839 -0.9572
 1833SOL     OW 5633   2.674   3.951   1.444 -0.3167 -0.6682  0.1607
 1833SOL    HW1 5634   2.600   3.905   1.485 -0.5413 -0.4131  0.0485
 1833SOL    HW2 5635   2.640   4.038   1.425 -0.3074 -0.8624 -0.8150
 1834SOL     OW 5636   1.409   2.693   4.227 -0.4251 -0.1169  0.0961
 1834SOL    HW1 5637   1.334   2.643   4.195 -1.9817  1.8800  0.4025
 1834SOL    HW2 5638   1.376   2.738   4.305  1.2442  0.4246  0.5288
 1835SOL     OW 5639   4.647   0.257   4.793  0.3365 -0.2806  0.3518
 1835SOL    HW1 5640   4.590   0.227   4.864  0.1211 -1.9206 -0.4773
 1835SOL    HW2 5641   4.617   0.208   4.716 -0.1318  2.1657 -1.1489
 1836SOL     OW 5642   3.954   4.003   4.689  0.3920  0.0549 -0.6664
 1836SOL    HW1 5643   3.907   3.967   4.764  1.7681 -0.0562  0.1895
 1836SOL    HW2 5644   3.997   3.928   4.649  0.4471  0.2555 -0.9858
 1837SOL     OW 5645   0.076   2.372   0.163 -0.0224 -0.2766  0.2748
 1837SOL    HW1 5646   0.168   2.375   0.189  0.7007 -2.4364 -1.6869
 1837SOL    HW2 5647   0.033   2.319   0.231  0.5374 -0.6130  0.3730
 1838SOL     OW 5648   1.903   1.201   3.167 -0.1345 -0.0638 -0.1205
 1838SOL    HW1 5649   1.832   1.245   3.121  0.4652 -0.4014 -1.4203
 1838SOL    HW2 5650   1.982   1.226   3.119  0.5322 -0.3084  0.8299
 1839SOL     OW 5651   3.097   1.003   2.120 -0.2364  0.5316 -0.0263
 1839SOL    HW1 5652   3.154   1.066   2.075 -1.7614  1.8069 -0.2668
 1839SOL    HW2 5653   3.009   1.031   2.098 -0.9880 -1.3254  0.4300
 1840SOL     OW 5654   4.757   1.654   0.535 -0.4423  0.2838 -0.0456
 1840SOL    HW1 5655   4.689   1.656   0.602 -0.4156  0.7540 -0.0274
 1840SOL    HW2 5656   4.820   1.589   0.567  0.9755  2.3894  1.8144
 1841SOL     OW 5657   3.152   0.921   0.679 -0.0333 -0.2463  0.3473
 1841SOL    HW1 5658   3.153   0.928   0.583  3.4986 -0.5988  0.2261
 1841SOL    HW2 5659   3.146   0.827   0.696 -1.7734 -0.1331  0.5926
 1842SOL     OW 5660   3.630   0.927   4.149  0.4125  0.6482 -0.1696
 1842SOL    HW1 5661   3.568   0.878   4.095  1.7670 -1.3844  0.0133
 1842SOL    HW2 5662   3.610   1.019   4.131 -1.3319  0.0522 -1.5872
 1843SOL     OW 5663   2.979   3.531   1.446 -0.0994 -0.7909 -0.1948
 1843SOL    HW1 5664   3.033   3.519   1.524  2.1975  0.6458 -1.4149
 1843SOL    HW2 5665   2.895   3.562   1.479  1.5773  2.3397  1.7385
 1844SOL     OW 5666   1.454   0.984   3.807  0.6489  0.4571  0.2537
 1844SOL    HW1 5667   1.437   1.054   3.744  1.3951  0.9376  0.5790
 1844SOL    HW2 5668   1.442   1.026   3.893  0.4711  0.0242  0.4410
 1845SOL     OW 5669   1.064   2.864   4.088  0.2860  0.1650  0.5409
 1845SOL    HW1 5670   1.149   2.907   4.076  0.0216  0.6607  0.4034
 1845SOL    HW2 5671   1.012   2.929   4.136  0.1536 -0.3425  1.0898
 1846SOL     OW 5672   1.710   3.168   3.022 -0.5061  0.5243  0.0045
 1846SOL    HW1 5673   1.804   3.173   3.005 -0.6175  0.6719 -0.5862
 1846SOL    HW2 5674   1.677   3.105   2.959 -0.4969 -1.1520  1.6013
 1847SOL     OW 5675   2.073   0.832   4.387  0.2476 -0.2575 -0.4924
 1847SOL    HW1 5676   2.157   0.866   4.357  0.0733 -0.0176 -0.7120
 1847SOL    HW2 5677   2.076   0.739   4.366  0.6172 -0.3314 -0.1363
 1848SOL     OW 5678   0.754   0.730   4.618 -0.0009 -0.3081 -0.3574
 1848SOL    HW1 5679   0.668   0.704   4.651  0.5943  0.0534  1.6300
 1848SOL    HW2 5680   0.786   0.794   4.682  2.2416 -1.3108 -0.3588
 1849SOL     OW 5681   0.112   3.503   3.868  0.0937 -0.2093  0.5317
 1849SOL    HW1 5682   0.126   3.560   3.792  2.2754  0.3203  1.2319
 1849SOL    HW2 5683   0.093   3.417   3.831  0.4438  0.1822 -0.6145
 1850SOL     OW 5684   4.504   1.780   0.813  0.5831  0.2916  0.3746
 1850SOL    HW1 5685   4.427   1.804   0.865  1.0789 -1.1811  1.8912
 1850SOL    HW2 5686   4.574   1.837   0.845  0.1099  1.8431 -1.2168
 1851SOL     OW 5687   3.427   3.541   0.655 -0.1549  0.2685 -0.5801
 1851SOL    HW1 5688   3.474   3.625   0.657 -0.2975  0.3445  1.5308
 1851SOL    HW2 5689   3.460   3.494   0.731 -1.3116 -0.9209 -0.7940
 1852SOL     OW 5690   1.764   3.619   1.591 -0.0371  0.5608 -0.4029
 1852SOL    HW1 5691   1.856   3.640   1.607  0.8735 -1.1859 -2.7701
 1852SOL    HW2 5692   1.723   3.704   1.577  1.1127  1.4058  1.0098
 1853SOL     OW 5693   0.842   0.399   1.544  0.1660 -0.1333  0.2423
 1853SOL    HW1 5694   0.774   0.382   1.610 -1.9617  0.7591 -1.6072
 1853SOL    HW2 5695   0.902   0.325   1.552 -1.7903 -1.7104  1.0273
 1854SOL     OW 5696   3.848   3.270   3.085  0.1052  0.1728  0.2232
 1854SOL    HW1 5697   3.923   3.321   3.116  0.0358 -0.5574  1.6949
 1854SOL    HW2 5698   3.816   3.318   3.009  0.8148  1.6316  0.8010
 1855SOL     OW 5699   0.239   1.468   1.278 -0.6708  0.3516  0.1973
 1855SOL    HW1 5700   0.231   1.373   1.285 -0.0258  0.2211 -0.6675
 1855SOL    HW2 5701   0.235   1.485   1.184  1.1288  0.9902  0.2126
 1856SOL     OW 5702   2.163   3.303   2.068 -0.1981 -0.4761  0.8092
 1856SOL    HW1 5703   2.077   3.344   2.060 -0.4874 -1.2129 -0.0618
 1856SOL    HW2 5704   2.190   3.287   1.978  0.5735 -0.8259  1.0942
 1857SOL     OW 5705   2.115   1.473   3.084  0.3861 -0.2703 -0.4316
 1857SOL    HW1 5706   2.139   1.498   2.995  0.0540 -0.9121 -0.7052
 1857SOL    HW2 5707   2.102   1.556   3.130 -2.4449  0.1660 -1.7923
 1858SOL     OW 5708   1.279   2.982   1.138  0.1660 -0.6190  0.1511
 1858SOL    HW1 5709   1.196   2.952   1.174  0.8731 -1.5808  1.0382
 1858SOL    HW2 5710   1.255   3.034   1.062 -1.2996  0.0682  1.0425
 1859SOL     OW 5711   3.541   1.599   2.982  0.4509 -0.3817  0.1381
 1859SOL    HW1 5712   3.551   1.548   2.902  1.3887 -0.1523  0.1003
 1859SOL    HW2 5713   3.453   1.578   3.013  0.7939 -1.9742  0.1006
 1860SOL     OW 5714   2.969   1.525   1.156 -0.2081  0.5590  0.4551
 1860SOL    HW1 5715   2.985   1.570   1.239 -2.9182  2.7178 -0.0587
 1860SOL    HW2 5716   2.892   1.470   1.173 -0.0789  0.1084 -0.3482
 1861SOL     OW 5717   4.167   2.104   2.324 -0.5710 -0.0712  0.5024
 1861SOL    HW1 5718   4.095   2.127   2.383  0.1930  1.8969  0.7599
 1861SOL    HW2 5719   4.246   2.123   2.374  0.1932 -2.7348  0.4201
 1862SOL     OW 5720   3.511   1.763   4.059 -0.0824 -0.1432 -0.0898
 1862SOL    HW1 5721   3.568   1.689   4.039  0.2247 -0.2993  1.2918
 1862SOL    HW2 5722   3.480   1.746   4.148 -1.0241  0.7466 -0.2303
 1863SOL     OW 5723   0.657   2.923   3.350 -0.1579  0.0412 -0.6485
 1863SOL    HW1 5724   0.729   2.985   3.358 -0.3065  0.0228  1.1559
 1863SOL    HW2 5725   0.695   2.847   3.306  1.7318 -1.0670  2.5183
 1864SOL     OW 5726   1.261   2.195   3.741  0.5310  0.4173  0.3949
 1864SOL    HW1 5727   1.267   2.258   3.812 -0.7747  0.4876  0.4759
 1864SOL    HW2 5728   1.167   2.184   3.727  0.7356 -1.0838  0.0025
 1865SOL     OW 5729   1.632   2.765   1.919  0.0953  0.2139 -0.2412
 1865SOL    HW1 5730   1.669   2.677   1.916 -1.2285 -0.3753 -0.2214
 1865SOL    HW2 5731   1.545   2.753   1.957  0.0188  1.5863  0.0669
 1866SOL     OW 5732   2.582   1.018   3.154  0.4294 -0.7602 -0.4183
 1866SOL    HW1 5733   2.500   1.067   3.156  0.1169 -1.2896  0.3790
 1866SOL    HW2 5734   2.581   0.973   3.070  1.1919  1.3468 -1.6256
 1867SOL     OW 5735   0.998   1.847   1.636  0.0611 -0.2974  0.1787
 1867SOL    HW1 5736   1.072   1.899   1.668 -0.4951 -0.7080  2.2536
 1867SOL    HW2 5737   1.013   1.841   1.541  1.1134  2.0535  0.1126
 1868SOL     OW 5738   3.200   1.994   0.866  0.1142  0.0858  0.1762
 1868SOL    HW1 5739   3.284   2.001   0.820  0.9682  0.1157  1.6664
 1868SOL    HW2 5740   3.198   2.071   0.923 -0.1941 -0.7215  1.2916
 1869SOL     OW 5741   4.037   0.958   4.490 -0.5326  0.0948 -0.3415
 1869SOL    HW1 5742   4.091   1.002   4.556 -0.4341  0.3998 -0.6220
 1869SOL    HW2 5743   4.101   0.924   4.427 -0.6999  2.2547 -1.8110
 1870SOL     OW 5744   2.462   2.008   2.624 -0.2926  0.2532 -0.0972
 1870SOL    HW1 5745   2.543   2.056   2.639  0.4343 -0.9516 -0.0528
 1870SOL    HW2 5746   2.487   1.916   2.629 -1.3957 -0.1531 -1.5049
 1871SOL     OW 5747   0.530   3.825   4.756 -0.0536  0.3586  0.2464
 1871SOL    HW1 5748   0.504   3.890   4.821 -0.8686  0.3367 -0.0393
 1871SOL    HW2 5749   0.578   3.759   4.805 -0.5343  0.4155  0.8078
 1872SOL     OW 5750   0.602   2.553   0.019 -0.0153  0.2093  0.4581
 1872SOL    HW1 5751   0.624   2.494  -0.053  3.5000  1.5842  0.1964
 1872SOL    HW2 5752   0.620   2.503   0.099  0.5269  0.0974  0.2712
 1873SOL     OW 5753   1.533   2.729   4.509  0.4327  0.4105  0.2670
 1873SOL    HW1 5754   1.619   2.768   4.519  1.4033 -1.2048 -1.1773
 1873SOL    HW2 5755   1.550   2.636   4.494 -1.6562 -0.2825  1.6731
 1874SOL     OW 5756   0.282   2.240   1.156 -0.5990  0.1112  0.2699
 1874SOL    HW1 5757   0.192   2.209   1.143  0.3323 -1.8581 -2.5879
 1874SOL    HW2 5758   0.307   2.208   1.243 -1.3915 -3.0265 -0.5364
 1875SOL     OW 5759   0.832   2.032   2.427 -0.6759  0.3721  0.4518
 1875SOL    HW1 5760   0.801   2.102   2.485 -0.8941  0.5561  0.1133
 1875SOL    HW2 5761   0.755   1.977   2.413 -1.2033  1.4876 -1.3592
 1876SOL     OW 5762   2.612   3.890   3.930 -0.0972 -0.0133  0.0064
 1876SOL    HW1 5763   2.672   3.876   3.856 -0.9147 -0.0470 -0.6703
 1876SOL    HW2 5764   2.538   3.937   3.891 -1.7253 -2.2638  0.2349
 1877SOL     OW 5765   0.420   1.210   3.633 -0.1877  0.3535  0.6689
 1877SOL    HW1 5766   0.505   1.188   3.594 -1.4479 -1.5626 -1.2461
 1877SOL    HW2 5767   0.371   1.252   3.562 -1.9144 -1.5459  0.6459
 1878SOL     OW 5768   4.583   0.026   2.747 -0.3517 -0.0449  0.3179
 1878SOL    HW1 5769   4.489   0.012   2.759 -0.5368  0.9558  0.1724
 1878SOL    HW2 5770   4.590   0.118   2.722  0.7298  0.1022  1.0868
 1879SOL     OW 5771   2.955   3.329   1.232  0.3765 -0.3684 -0.3084
 1879SOL    HW1 5772   2.871   3.292   1.206  0.8481 -1.1575 -0.7548
 1879SOL    HW2 5773   2.937   3.378   1.312 -0.4945 -0.5572 -0.3862
 1880SOL     OW 5774   4.617   4.717   0.468 -0.0654  0.2750  0.2407
 1880SOL    HW1 5775   4.695   4.709   0.523  0.5867  0.9649 -0.5612
 1880SOL    HW2 5776   4.650   4.718   0.378 -1.1005 -0.6910 -0.1840
 1881SOL     OW 5777   4.916   3.751   1.637  0.5743  0.3243  0.9873
 1881SOL    HW1 5778   4.972   3.674   1.628  0.1245  0.1271 -0.5367
 1881SOL    HW2 5779   4.852   3.742   1.566  0.5078  2.0938  0.7793
 1882SOL     OW 5780   1.404   3.633   2.470 -0.1991 -0.2073  0.2793
 1882SOL    HW1 5781   1.378   3.580   2.545 -1.3433  0.6083  0.4825
 1882SOL    HW2 5782   1.499   3.644   2.481 -0.3703  0.0711  1.7129
 1883SOL     OW 5783   1.884   1.112   2.352 -0.2440  0.0099  0.2683
 1883SOL    HW1 5784   1.845   1.035   2.392  2.8725 -0.0621  3.6328
 1883SOL    HW2 5785   1.811   1.174   2.343 -1.7141 -1.0601  3.5253
 1884SOL     OW 5786   2.541   1.701   5.006 -0.2878  0.2085  0.7098
 1884SOL    HW1 5787   2.476   1.722   4.938 -0.6585 -1.9796  0.3183
 1884SOL    HW2 5788   2.625   1.729   4.969 -0.4455 -1.2040 -0.8064
 1885SOL     OW 5789   2.041   3.023   0.090  0.3681  0.6949  0.2039
 1885SOL    HW1 5790   1.973   3.039   0.156  0.0601 -1.0995  0.3747
 1885SOL    HW2 5791   2.110   2.977   0.137  1.0332  1.1294 -0.3182
 1886SOL     OW 5792   1.724   1.729   2.347 -0.3975  0.2391  0.2158
 1886SOL    HW1 5793   1.765   1.813   2.371 -0.2073  0.2890 -0.2833
 1886SOL    HW2 5794   1.639   1.754   2.311 -0.7267  0.1567  0.9085
 1887SOL     OW 5795   4.333   3.195   4.712 -0.0325 -0.4907  1.1881
 1887SOL    HW1 5796   4.246   3.186   4.752 -0.2030 -0.3435  0.8635
 1887SOL    HW2 5797   4.358   3.106   4.689  0.3079 -0.6355  2.1116
 1888SOL     OW 5798   3.040   2.585   1.565  0.5200  0.1733  0.2345
 1888SOL    HW1 5799   2.982   2.653   1.601 -1.2470 -1.4939  0.6841
 1888SOL    HW2 5800   2.998   2.557   1.484  0.2606 -1.5892  0.9428
 1889SOL     OW 5801   1.091   3.099   0.960 -0.1386  0.1085 -0.3326
 1889SOL    HW1 5802   1.084   3.007   0.935  0.1025 -1.2329  3.7899
 1889SOL    HW2 5803   1.009   3.117   1.007  1.4412  0.6364  2.4266
 1890SOL     OW 5804   1.472   1.269   0.853  0.0879  0.0085  0.1734
 1890SOL    HW1 5805   1.504   1.255   0.764  2.3144 -0.6421  0.9914
 1890SOL    HW2 5806   1.531   1.335   0.890 -1.5371  1.1679  0.8413
 1891SOL     OW 5807   0.059   1.446   2.774  0.0959  0.6867 -0.2086
 1891SOL    HW1 5808   0.135   1.431   2.718 -0.1290  0.9243 -0.5783
 1891SOL    HW2 5809   0.004   1.369   2.762  1.2430 -0.4852  1.6571
 1892SOL     OW 5810   3.962   0.733   1.646 -0.0151  0.1549 -0.3571
 1892SOL    HW1 5811   4.007   0.739   1.730 -2.2441  0.3784  0.9096
 1892SOL    HW2 5812   3.945   0.640   1.634 -1.0662  0.2413  0.2754
 1893SOL     OW 5813   4.319   3.957   2.684 -0.9549  0.5247 -0.2616
 1893SOL    HW1 5814   4.299   3.868   2.713  0.1152  0.0868 -0.8018
 1893SOL    HW2 5815   4.243   3.983   2.631 -2.3827  0.8971  1.8776
 1894SOL     OW 5816   0.559   2.340   4.806  0.1359 -0.1304 -0.6507
 1894SOL    HW1 5817   0.590   2.257   4.771 -0.1503 -0.7804  0.5960
 1894SOL    HW2 5818   0.514   2.382   4.733 -2.0662 -2.2617 -0.6217
 1895SOL     OW 5819   3.356   2.566   3.230 -0.3023  0.3440 -0.2398
 1895SOL    HW1 5820   3.400   2.533   3.152 -1.0922 -0.5726 -0.3141
 1895SOL    HW2 5821   3.295   2.632   3.197 -1.4730 -0.8642 -0.5582
 1896SOL     OW 5822   0.327   2.517   3.005 -0.2383 -0.7082 -1.1636
 1896SOL    HW1 5823   0.255   2.454   3.008  0.3972 -1.6249 -3.2415
 1896SOL    HW2 5824   0.285   2.601   2.988 -0.8400 -1.2554 -2.5310
 1897SOL     OW 5825   1.468   4.173   3.064 -0.0794 -0.0743  0.4039
 1897SOL    HW1 5826   1.498   4.155   3.153  0.9582  2.6135  0.7052
 1897SOL    HW2 5827   1.511   4.107   3.010 -0.0697 -1.2418  1.7891
 1898SOL     OW 5828   1.632   0.835   3.693  0.2429 -0.1166  0.1919
 1898SOL    HW1 5829   1.566   0.896   3.726  1.2493  1.1732 -0.1289
 1898SOL    HW2 5830   1.590   0.793   3.618 -0.4610  0.1725  0.4158
 1899SOL     OW 5831   4.680   4.641   1.251  0.5345  0.2874  0.0093
 1899SOL    HW1 5832   4.703   4.705   1.318 -2.6352  1.1606  0.4271
 1899SOL    HW2 5833   4.626   4.577   1.296  0.1166 -0.3123 -1.2837
 1900SOL     OW 5834   0.775   2.751   0.237  0.8367 -0.7232  0.1218
 1900SOL    HW1 5835   0.710   2.791   0.295 -0.6033 -1.6135 -0.7929
 1900SOL    HW2 5836   0.751   2.782   0.149  2.3331 -0.2104 -0.1249
 1901SOL     OW 5837   4.519   2.468   3.718  0.8646  0.2853 -0.4991
 1901SOL    HW1 5838   4.576   2.518   3.777  0.2572  0.2918  0.0930
 1901SOL    HW2 5839   4.519   2.380   3.756  0.2914  0.3449 -0.3637
 1902SOL     OW 5840   1.493   3.718   2.204  0.2139 -0.3260 -0.7549
 1902SOL    HW1 5841   1.450   3.714   2.289 -1.6079 -0.0388 -1.6058
 1902SOL    HW2 5842   1.562   3.784   2.215  0.5827 -0.9124  0.7086
 1903SOL     OW 5843   4.406   4.407   2.070  0.6452 -0.3602 -0.2122
 1903SOL    HW1 5844   4.445   4.336   2.019  1.7585 -0.1986  0.3914
 1903SOL    HW2 5845   4.370   4.364   2.148  0.7902 -0.3340 -0.1314
 1904SOL     OW 5846   3.151   0.553   0.880 -0.3993  0.4300  0.5826
 1904SOL    HW1 5847   3.168   0.480   0.821  0.7682  0.1566  1.2424
 1904SOL    HW2 5848   3.095   0.612   0.829 -0.0635 -0.1710 -0.5135
 1905SOL     OW 5849   1.155   4.203   1.806 -0.0639  0.4098 -0.3229
 1905SOL    HW1 5850   1.075   4.166   1.844 -0.7433  0.2446 -1.8445
 1905SOL    HW2 5851   1.125   4.279   1.756  0.9907  1.4813  0.6027
 1906SOL     OW 5852   1.404   2.331   2.819  0.8144  0.3765  0.2368
 1906SOL    HW1 5853   1.329   2.389   2.829 -1.0497 -1.8457 -0.1994
 1906SOL    HW2 5854   1.410   2.314   2.725  0.2899 -1.3890  0.4937
 1907SOL     OW 5855   1.981   4.781   0.799 -0.2556 -0.5402 -0.4064
 1907SOL    HW1 5856   2.059   4.836   0.801 -1.3450  1.0587  1.3790
 1907SOL    HW2 5857   2.014   4.691   0.799  1.5587  0.0930 -0.6136
 1908SOL     OW 5858   4.301   0.041   4.028  0.0072 -0.6315 -0.4259
 1908SOL    HW1 5859   4.282   0.126   4.067  0.4490  0.6929 -2.9378
 1908SOL    HW2 5860   4.394   0.027   4.046  0.0801 -0.2891 -0.5315
 1909SOL     OW 5861   1.965   4.717   4.703 -0.2568 -0.0635  0.6359
 1909SOL    HW1 5862   1.976   4.673   4.618 -0.5331 -0.9304  1.0429
 1909SOL    HW2 5863   1.985   4.809   4.684 -1.3368 -0.0446 -0.6054
 1910SOL     OW 5864   3.430   0.887   1.505  0.0713 -0.6453  0.3970
 1910SOL    HW1 5865   3.515   0.852   1.476  0.7178  1.1476 -0.0212
 1910SOL    HW2 5866   3.385   0.910   1.424 -0.0225  0.1510  0.6688
 1911SOL     OW 5867   1.446   1.651   4.264 -0.2799  0.4936  0.1941
 1911SOL    HW1 5868   1.527   1.608   4.236 -0.3888 -0.5068  1.3104
 1911SOL    HW2 5869   1.376   1.593   4.233 -0.4129 -0.4792  2.1238
 1912SOL     OW 5870   1.557   1.407   3.403 -0.2442 -0.2431 -0.2180
 1912SOL    HW1 5871   1.545   1.439   3.493 -0.2909  1.0417 -0.6571
 1912SOL    HW2 5872   1.491   1.339   3.393 -0.0450 -0.6059  0.8103
 1913SOL     OW 5873   2.480   0.793   0.035  0.6001 -0.0321 -0.4213
 1913SOL    HW1 5874   2.559   0.805   0.087  0.2594  2.5629 -0.3921
 1913SOL    HW2 5875   2.512   0.776  -0.054  1.2023  1.0069 -0.4114
 1914SOL     OW 5876   2.632   0.834   4.429  0.4880 -0.3788  0.4823
 1914SOL    HW1 5877   2.669   0.746   4.436  1.8032  0.0401 -0.8187
 1914SOL    HW2 5878   2.538   0.822   4.445  0.6059 -2.0527  0.0725
 1915SOL     OW 5879   2.650   0.079   2.075 -0.1481  0.1523 -0.1196
 1915SOL    HW1 5880   2.720   0.065   2.139  0.0940 -1.3935 -0.6713
 1915SOL    HW2 5881   2.616   0.166   2.095  0.2471 -0.0804  1.7892
 1916SOL     OW 5882   3.662   4.083   4.925 -0.0383 -0.1561 -0.2051
 1916SOL    HW1 5883   3.685   4.002   4.970 -0.5661  0.3258  0.9863
 1916SOL    HW2 5884   3.605   4.055   4.853 -2.1546 -0.7069  1.5717
 1917SOL     OW 5885   2.346   4.082   0.655 -0.3216 -0.0870  0.3422
 1917SOL    HW1 5886   2.397   4.001   0.658  0.8786  0.6845  1.4951
 1917SOL    HW2 5887   2.392   4.142   0.713 -2.2970  0.7972  1.0907
 1918SOL     OW 5888   3.371   4.252   3.864  0.4275 -0.7059  0.0193
 1918SOL    HW1 5889   3.439   4.212   3.917  0.7451 -0.2903 -0.0780
 1918SOL    HW2 5890   3.388   4.221   3.775  1.5557  0.7889 -0.3194
 1919SOL     OW 5891   0.917   4.477   3.709  0.6038  0.4793  0.5058
 1919SOL    HW1 5892   0.947   4.489   3.799  0.3817  0.3558  0.5964
 1919SOL    HW2 5893   0.822   4.488   3.714  0.7136  1.7369  0.0755
 1920SOL     OW 5894   4.501   2.106   2.293  0.3084 -1.1200  0.3303
 1920SOL    HW1 5895   4.474   2.019   2.321  0.2551 -1.0899  0.3738
 1920SOL    HW2 5896   4.487   2.162   2.370 -1.9364 -0.5935 -0.4054
 1921SOL     OW 5897   4.110   3.600   4.163 -0.1456  0.2363 -0.1484
 1921SOL    HW1 5898   4.071   3.634   4.243  1.5146 -0.8503  1.1826
 1921SOL    HW2 5899   4.177   3.664   4.140 -0.6066  0.5369 -0.6970
 1922SOL     OW 5900   4.925   4.622   2.466 -1.1472  0.2797  0.0885
 1922SOL    HW1 5901   4.834   4.646   2.454 -0.9660  0.9387 -0.0207
 1922SOL    HW2 5902   4.931   4.596   2.558 -1.5423 -0.2271 -0.0301
 1923SOL     OW 5903   1.287   3.546   0.749 -0.0888  0.0618  0.1194
 1923SOL    HW1 5904   1.333   3.553   0.665  0.7977 -0.7522  0.5236
 1923SOL    HW2 5905   1.272   3.453   0.761  1.7226 -0.0814  1.8578
 1924SOL     OW 5906   4.747   2.128   2.123  0.5746  0.8314  1.1509
 1924SOL    HW1 5907   4.662   2.100   2.157  0.5051  1.0525  1.1602
 1924SOL    HW2 5908   4.749   2.222   2.138 -0.4660  1.3839 -1.5921
 1925SOL     OW 5909   4.913   0.385   3.386 -0.2046  0.3185  0.3776
 1925SOL    HW1 5910   5.005   0.384   3.360 -0.3786 -0.0279 -0.2566
 1925SOL    HW2 5911   4.899   0.300   3.429 -0.3322  0.1895  0.0843
 1926SOL     OW 5912   3.399   3.768   4.276  0.3500  0.0917 -0.1404
 1926SOL    HW1 5913   3.491   3.744   4.281  0.5655  1.0714  1.3715
 1926SOL    HW2 5914   3.355   3.707   4.336 -0.3578 -1.7809 -2.4382
 1927SOL     OW 5915   0.372   1.804   0.229  0.3559 -0.7614  0.6375
 1927SOL    HW1 5916   0.363   1.762   0.143 -0.2050  0.2585  0.1771
 1927SOL    HW2 5917   0.291   1.781   0.275  0.5289 -1.0712  0.7882
 1928SOL     OW 5918   1.248   4.663   2.817  0.3070 -0.6168  0.4694
 1928SOL    HW1 5919   1.338   4.632   2.806  0.8197  0.6711  0.8120
 1928SOL    HW2 5920   1.230   4.714   2.738  1.1999  2.0956  1.8782
 1929SOL     OW 5921   0.090   2.469   1.845 -0.3858  0.1990 -0.1525
 1929SOL    HW1 5922   0.139   2.388   1.860 -1.5730 -0.5318 -0.0837
 1929SOL    HW2 5923   0.154   2.529   1.807  0.4557 -0.8628 -0.4721
 1930SOL     OW 5924   1.339   4.117   2.445 -0.1551  0.1841  0.2616
 1930SOL    HW1 5925   1.312   4.117   2.537  0.6482 -2.2815  0.5590
 1930SOL    HW2 5926   1.399   4.043   2.437 -0.8320 -0.1814 -2.4313
 1931SOL     OW 5927   1.654   2.913   1.206  0.6140 -0.0695 -0.6345
 1931SOL    HW1 5928   1.695   2.827   1.214  1.6302  0.5508  1.9886
 1931SOL    HW2 5929   1.587   2.914   1.274 -0.1018  0.8741 -1.3248
 1932SOL     OW 5930   3.860   1.182   0.556  0.0603 -0.0159 -1.0391
 1932SOL    HW1 5931   3.895   1.144   0.476  0.7385  0.9530 -1.2254
 1932SOL    HW2 5932   3.793   1.244   0.527 -1.0955 -1.0762 -0.7360
 1933SOL     OW 5933   2.985   4.535   4.157  0.1586  0.8115  0.4158
 1933SOL    HW1 5934   3.008   4.620   4.119 -0.0656  1.2447  1.2287
 1933SOL    HW2 5935   3.057   4.477   4.133  0.7486  1.4580  0.6100
 1934SOL     OW 5936   3.148   2.611   3.896  0.0966  0.6718  0.5247
 1934SOL    HW1 5937   3.076   2.568   3.850  0.8469  0.4685 -0.4666
 1934SOL    HW2 5938   3.181   2.545   3.957 -0.3837  0.6856  0.8062
 1935SOL     OW 5939   0.046   4.353   2.834  0.1444  0.0311  0.1053
 1935SOL    HW1 5940   0.072   4.301   2.758 -1.7511  1.8986 -1.9872
 1935SOL    HW2 5941   0.110   4.425   2.836 -1.0971  1.2408 -1.2381
 1936SOL     OW 5942   1.331   4.589   3.956 -0.2620  0.4770  0.4233
 1936SOL    HW1 5943   1.276   4.511   3.963 -0.0361  0.2835  0.0455
 1936SOL    HW2 5944   1.292   4.651   4.018  1.2096 -0.9102  2.9158
 1937SOL     OW 5945   3.439   3.623   3.698 -0.0056 -0.4916  0.0907
 1937SOL    HW1 5946   3.405   3.547   3.652  0.0949 -0.5720  0.1501
 1937SOL    HW2 5947   3.393   3.624   3.782 -0.7017  0.0496 -0.2847
 1938SOL     OW 5948   2.563   4.944   2.368 -0.0790  0.8110 -0.0092
 1938SOL    HW1 5949   2.513   4.944   2.450  1.8955  0.4056  1.2641
 1938SOL    HW2 5950   2.518   4.881   2.312  1.6126 -3.3294  2.8461
 1939SOL     OW 5951   3.179   2.694   1.225 -0.0309  0.0918 -0.1515
 1939SOL    HW1 5952   3.216   2.611   1.256  1.8959  1.0224  0.1756
 1939SOL    HW2 5953   3.212   2.703   1.136 -0.9597  0.1123 -0.5049
 1940SOL     OW 5954   1.737   1.302   3.778 -0.7045 -0.3049 -0.0562
 1940SOL    HW1 5955   1.825   1.301   3.740 -0.3392 -0.4814  0.7850
 1940SOL    HW2 5956   1.737   1.231   3.842 -1.9884 -1.4022 -1.2035
 1941SOL     OW 5957   4.544   2.967   1.204  0.4653  0.0836  0.4455
 1941SOL    HW1 5958   4.615   2.903   1.198  0.2862  0.0068 -2.1075
 1941SOL    HW2 5959   4.564   3.031   1.136 -1.7231  0.2136 -0.1621
 1942SOL     OW 5960   1.876   1.519   1.493  0.0988 -0.0470  0.3454
 1942SOL    HW1 5961   1.944   1.517   1.425  0.0618  0.2809  0.2983
 1942SOL    HW2 5962   1.872   1.611   1.521 -1.9212  0.4073 -1.2481
 1943SOL     OW 5963   4.865   0.549   4.651  0.3160  0.0552 -0.2045
 1943SOL    HW1 5964   4.896   0.639   4.650 -1.5196  0.7334 -0.9297
 1943SOL    HW2 5965   4.903   0.509   4.573  1.8981 -0.1086  0.6232
 1944SOL     OW 5966   0.464   0.980   4.080  0.3115  0.0954 -0.1120
 1944SOL    HW1 5967   0.488   0.887   4.075 -0.1182 -0.0083 -0.2365
 1944SOL    HW2 5968   0.417   0.997   3.999  1.1311  0.6384 -0.4848
 1945SOL     OW 5969   0.604   2.867   0.441  0.0821  0.5292  0.0239
 1945SOL    HW1 5970   0.539   2.832   0.381 -0.7583  1.5998  0.2698
 1945SOL    HW2 5971   0.556   2.884   0.522  0.7747  0.8565  0.3792
 1946SOL     OW 5972   0.791   4.864   4.842  0.4343 -0.5635  0.1393
 1946SOL    HW1 5973   0.800   4.768   4.845  0.0378 -0.5815  0.7843
 1946SOL    HW2 5974   0.698   4.878   4.823  0.2299 -0.2929  1.3129
 1947SOL     OW 5975   0.417   3.457   1.363 -0.2709  0.3825  0.2171
 1947SOL    HW1 5976   0.374   3.388   1.313 -0.7455  0.7461  0.1210
 1947SOL    HW2 5977   0.446   3.414   1.443  1.0294 -0.3475 -0.6171
 1948SOL     OW 5978   0.370   4.616   3.624 -0.4430  0.6715 -0.2981
 1948SOL    HW1 5979   0.395   4.677   3.554 -1.0230  0.7054 -0.4858
 1948SOL    HW2 5980   0.303   4.662   3.673 -0.8809  0.1948 -0.4333
 1949SOL     OW 5981   0.373   4.766   1.356 -0.5960 -0.5035  0.3938
 1949SOL    HW1 5982   0.357   4.795   1.445 -1.0936 -1.4950  0.6354
 1949SOL    HW2 5983   0.324   4.685   1.347  1.2768 -1.6330 -0.0580
 1950SOL     OW 5984   4.559   4.601   1.659  0.4292  1.1209 -0.0799
 1950SOL    HW1 5985   4.511   4.624   1.738  0.3521  1.6603 -0.2774
 1950SOL    HW2 5986   4.643   4.565   1.690  0.2430  0.9713  0.2473
 1951SOL     OW 5987   4.213   0.841   0.466  1.0627 -0.1912  0.4201
 1951SOL    HW1 5988   4.306   0.827   0.449  1.5415 -1.4795  3.3460
 1951SOL    HW2 5989   4.210   0.870   0.558 -1.4052  0.0634  0.3175
 1952SOL     OW 5990   4.715   3.719   0.987  0.0254  0.2278 -0.0048
 1952SOL    HW1 5991   4.621   3.726   1.004 -0.2698 -0.6627 -1.1029
 1952SOL    HW2 5992   4.756   3.733   1.072 -1.1006  0.5678  0.5048
 1953SOL     OW 5993   0.504   3.969   4.514  0.4954 -0.0997  0.1273
 1953SOL    HW1 5994   0.512   3.929   4.600  0.7579 -0.3066  0.0079
 1953SOL    HW2 5995   0.593   3.995   4.491  0.3152  0.6737  0.2581
 1954SOL     OW 5996   1.863   0.873   3.365 -0.6411 -0.1004 -0.5431
 1954SOL    HW1 5997   1.939   0.881   3.308  0.0392  0.3654  0.3996
 1954SOL    HW2 5998   1.843   0.779   3.364  1.9366 -0.8097  1.6401
 1955SOL     OW 5999   0.448   0.588   1.499  0.1323 -0.6539 -0.8506
 1955SOL    HW1 6000   0.461   0.664   1.442  2.4001  1.3364  2.0473
 1955SOL    HW2 6001   0.508   0.521   1.465 -0.5080 -0.5246 -2.3103
 1956SOL     OW 6002   1.013   1.430   3.875 -0.1053 -0.4366  0.0594
 1956SOL    HW1 6003   1.004   1.504   3.935  1.4330 -0.4494  0.3447
 1956SOL    HW2 6004   1.073   1.370   3.919  1.9231  0.0190 -1.8772
 1957SOL     OW 6005   2.009   0.627   3.542  0.1258  0.6568  0.3100
 1957SOL    HW1 6006   1.992   0.678   3.621  1.1809  1.8202 -0.1740
 1957SOL    HW2 6007   2.045   0.690   3.480  2.3840 -0.8250 -0.0245
 1958SOL     OW 6008   4.492   1.812   2.604  0.3437  0.0254 -0.3839
 1958SOL    HW1 6009   4.457   1.767   2.681  0.1601  1.7538  0.6063
 1958SOL    HW2 6010   4.560   1.870   2.639 -0.3706  1.5221 -1.3497
 1959SOL     OW 6011   3.128   4.165   1.705  0.4564  0.4808 -0.1604
 1959SOL    HW1 6012   3.186   4.121   1.643  1.4279  0.8368  0.4813
 1959SOL    HW2 6013   3.109   4.250   1.663 -1.2692 -0.4027 -1.3102
 1960SOL     OW 6014   1.696   1.707   4.539  0.7147  0.0786 -0.2118
 1960SOL    HW1 6015   1.744   1.675   4.615  1.0518  2.1107  0.4901
 1960SOL    HW2 6016   1.764   1.742   4.481  0.3169  0.1558 -0.6409
 1961SOL     OW 6017   2.783   2.356   3.989  0.2363 -0.2429 -0.5112
 1961SOL    HW1 6018   2.723   2.290   3.955 -1.9708  1.2682  0.1654
 1961SOL    HW2 6019   2.835   2.310   4.055 -2.4165 -1.0429  1.1964
 1962SOL     OW 6020   2.237   2.658   0.946 -0.6052  0.5455 -0.6419
 1962SOL    HW1 6021   2.145   2.682   0.936 -0.7853 -0.8044 -3.1102
 1962SOL    HW2 6022   2.284   2.715   0.885  0.6440  2.9235  2.2979
 1963SOL     OW 6023   3.914   0.861   1.944  0.1025 -0.1912  0.5017
 1963SOL    HW1 6024   3.939   0.912   2.021  0.8870  0.7526 -0.3515
 1963SOL    HW2 6025   3.963   0.901   1.872 -1.1179 -0.6291 -0.6076
 1964SOL     OW 6026   3.446   0.357   0.878 -0.3694 -0.1702 -0.2834
 1964SOL    HW1 6027   3.540   0.340   0.877 -0.6203 -1.8138 -2.1482
 1964SOL    HW2 6028   3.425   0.369   0.971  1.7580  0.9916  0.1214
 1965SOL     OW 6029   1.599   3.977   2.173 -0.2654 -0.4758 -0.0562
 1965SOL    HW1 6030   1.509   4.010   2.165 -0.6856 -1.6217 -0.1634
 1965SOL    HW2 6031   1.653   4.057   2.180 -1.4032  0.2021  1.3820
 1966SOL     OW 6032   4.597   3.303   2.495  0.2040  0.5175  0.6754
 1966SOL    HW1 6033   4.623   3.277   2.407 -1.1376  1.6048 -0.0891
 1966SOL    HW2 6034   4.671   3.354   2.528 -0.1520  2.0813 -0.7737
 1967SOL     OW 6035   1.859   1.500   2.907 -0.4415  0.7493 -0.3562
 1967SOL    HW1 6036   1.826   1.411   2.917  2.3170 -0.5355 -1.6526
 1967SOL    HW2 6037   1.888   1.525   2.995  1.0389 -0.6711 -0.3939
 1968SOL     OW 6038   1.513   0.646   4.596  0.5174  0.4573  0.2300
 1968SOL    HW1 6039   1.424   0.660   4.629 -0.0513 -0.0740 -1.0104
 1968SOL    HW2 6040   1.553   0.587   4.661  0.6435  2.1650  1.8014
 1969SOL     OW 6041   1.314   4.962   3.710 -0.3427 -0.3885 -0.5576
 1969SOL    HW1 6042   1.355   4.932   3.791 -1.6995 -1.1012 -0.1128
 1969SOL    HW2 6043   1.383   4.957   3.644  0.8932  0.5673  0.6113
 1970SOL     OW 6044   0.262   4.158   1.007 -0.5108  0.7060  0.8562
 1970SOL    HW1 6045   0.254   4.216   1.083  1.8633  1.1126  0.8489
 1970SOL    HW2 6046   0.322   4.203   0.948 -0.1288 -0.8925 -0.0218
 1971SOL     OW 6047   0.796   0.943   4.775  0.0590 -0.0081 -0.2184
 1971SOL    HW1 6048   0.826   1.022   4.730 -2.5954  0.8771 -0.6439
 1971SOL    HW2 6049   0.720   0.972   4.825 -1.4075 -2.3961 -0.8810
 1972SOL     OW 6050   0.666   2.344   1.836 -0.1244 -0.7103  0.5173
 1972SOL    HW1 6051   0.623   2.258   1.835  2.5193 -2.1290 -0.3279
 1972SOL    HW2 6052   0.622   2.394   1.768  1.5564 -3.2687 -2.7350
 1973SOL     OW 6053   3.003   1.718   4.426 -0.0789  0.4331 -0.1063
 1973SOL    HW1 6054   2.954   1.750   4.350 -1.2517  0.2795  0.5473
 1973SOL    HW2 6055   3.021   1.626   4.406 -0.0547  0.4936 -0.3643
 1974SOL     OW 6056   2.221   1.616   3.506 -0.4639  0.3181  0.2453
 1974SOL    HW1 6057   2.291   1.563   3.544  1.4407  1.9733 -0.7578
 1974SOL    HW2 6058   2.179   1.558   3.443 -0.0783 -0.7466  0.9421
 1975SOL     OW 6059   4.271   2.596   3.778  0.1175 -0.2057 -0.9770
 1975SOL    HW1 6060   4.266   2.679   3.730 -1.1341  0.3273  0.0243
 1975SOL    HW2 6061   4.352   2.555   3.746  1.6344  2.1212 -0.3540
 1976SOL     OW 6062   0.877   3.530   0.538 -0.0054  0.0117 -0.4829
 1976SOL    HW1 6063   0.932   3.559   0.610  0.1968 -1.4136 -0.0151
 1976SOL    HW2 6064   0.921   3.562   0.459 -0.2488  1.6103  0.0021
 1977SOL     OW 6065   0.579   3.034   2.841 -0.0776 -0.1018  0.1322
 1977SOL    HW1 6066   0.642   3.106   2.848 -0.7472  0.6772 -1.3870
 1977SOL    HW2 6067   0.502   3.073   2.801 -1.1712 -1.2696  1.0165
 1978SOL     OW 6068   1.605   3.211   1.164  0.3470 -0.0143  0.7144
 1978SOL    HW1 6069   1.601   3.115   1.160 -1.4125  0.0696 -0.5727
 1978SOL    HW2 6070   1.680   3.234   1.110  1.2336 -0.6715  1.6308
 1979SOL     OW 6071   0.700   3.365   1.305 -0.2446  0.1361  0.3830
 1979SOL    HW1 6072   0.624   3.418   1.327  0.9829  2.1450  0.0393
 1979SOL    HW2 6073   0.668   3.302   1.240 -1.7582  0.4533  0.7904
 1980SOL     OW 6074   3.885   2.307   3.343 -0.1578 -0.0930  0.1132
 1980SOL    HW1 6075   3.939   2.346   3.411  1.1750 -0.6065 -0.6180
 1980SOL    HW2 6076   3.927   2.223   3.323 -0.8754 -0.2399 -0.8959
 1981SOL     OW 6077   4.321   0.804   0.091 -0.9925 -0.2243  0.5147
 1981SOL    HW1 6078   4.359   0.744   0.026  1.4519  0.8284  0.8682
 1981SOL    HW2 6079   4.331   0.758   0.174 -1.3411 -0.3147  0.5080
 1982SOL     OW 6080   4.260   0.952   0.719  0.0446  0.4369 -0.1760
 1982SOL    HW1 6081   4.335   0.917   0.766  0.6583 -1.0016 -2.0851
 1982SOL    HW2 6082   4.195   0.970   0.787  0.6446 -2.1448  1.1915
 1983SOL     OW 6083   3.985   0.827   3.729 -0.1403 -0.6294  0.1439
 1983SOL    HW1 6084   3.901   0.791   3.701 -0.9591 -0.5542  2.2780
 1983SOL    HW2 6085   3.979   0.921   3.710  0.6220 -1.0102 -2.2543
 1984SOL     OW 6086   4.679   1.883   3.120  0.3846 -0.7638 -0.4909
 1984SOL    HW1 6087   4.686   1.963   3.068  1.6321 -0.9954 -0.7073
 1984SOL    HW2 6088   4.598   1.842   3.089 -0.8746  0.9401  0.4269
 1985SOL     OW 6089   4.658   0.712   1.811  0.0406  0.3883 -0.5167
 1985SOL    HW1 6090   4.614   0.641   1.764 -0.0329  0.8295 -1.1300
 1985SOL    HW2 6091   4.735   0.733   1.758 -0.0743  0.9341 -0.4830
 1986SOL     OW 6092   4.399   2.782   0.013  0.1218 -0.7359  0.3027
 1986SOL    HW1 6093   4.482   2.776  -0.034 -0.9263 -1.6748 -1.5140
 1986SOL    HW2 6094   4.407   2.862   0.064  2.3546 -1.0904  0.6428
 1987SOL     OW 6095   3.318   3.224   2.959 -0.1904 -0.1133 -0.0892
 1987SOL    HW1 6096   3.312   3.207   3.053  0.6684  0.9483  0.1804
 1987SOL    HW2 6097   3.301   3.139   2.918  0.5810 -0.8500  1.0550
 1988SOL     OW 6098   2.588   4.460   1.467  0.4514  0.2185 -0.1324
 1988SOL    HW1 6099   2.495   4.476   1.452  0.5642  0.2019 -0.9002
 1988SOL    HW2 6100   2.633   4.532   1.422  0.8071  0.3271  0.3815
 1989SOL     OW 6101   4.283   1.187   0.597  0.0981 -0.1283 -0.0140
 1989SOL    HW1 6102   4.258   1.098   0.621  1.5250 -1.4290 -2.8167
 1989SOL    HW2 6103   4.370   1.198   0.634 -1.1063  1.2688  2.6873
 1990SOL     OW 6104   3.206   2.421   2.245  0.0555 -0.5124 -0.3417
 1990SOL    HW1 6105   3.187   2.507   2.284 -1.2375 -1.0984  0.3638
 1990SOL    HW2 6106   3.220   2.440   2.152 -0.7327  0.4068 -0.2897
 1991SOL     OW 6107   4.700   3.097   0.462 -0.2268 -0.1333  0.3308
 1991SOL    HW1 6108   4.689   3.186   0.428 -1.1091 -1.4790 -3.3655
 1991SOL    HW2 6109   4.619   3.052   0.438 -0.8283 -1.4901  4.1637
 1992SOL     OW 6110   0.132   3.309   2.988 -0.5876 -0.2825  0.5337
 1992SOL    HW1 6111   0.133   3.353   3.073  3.9393  0.5915  0.3225
 1992SOL    HW2 6112   0.170   3.223   3.006 -0.9173 -0.6280 -0.4053
 1993SOL     OW 6113   2.010   1.147   2.019  0.4624  0.2308  0.0640
 1993SOL    HW1 6114   1.949   1.194   1.962  0.8134  0.6633  0.0359
 1993SOL    HW2 6115   1.985   1.173   2.108 -0.6958 -1.1807  0.1859
 1994SOL     OW 6116   0.008   1.892   1.085  0.1862  0.8290  0.1590
 1994SOL    HW1 6117  -0.057   1.822   1.078 -0.6488  1.6266 -0.1482
 1994SOL    HW2 6118   0.086   1.856   1.041  0.6305 -0.8617  2.1748
 1995SOL     OW 6119   2.034   1.971   3.003  0.8915 -0.1421  0.3025
 1995SOL    HW1 6120   2.039   2.056   3.048 -0.0087  2.5199 -3.9678
 1995SOL    HW2 6121   2.103   1.977   2.936 -1.6384 -0.9468 -2.6074
 1996SOL     OW 6122   0.350   3.954   1.285 -0.1429 -0.2490  0.2365
 1996SOL    HW1 6123   0.343   4.006   1.205  3.0606 -0.9148 -0.6301
 1996SOL    HW2 6124   0.350   3.863   1.255  0.7428 -0.5172  0.9765
 1997SOL     OW 6125   4.405   4.286   3.475  1.1958  0.2763  0.0738
 1997SOL    HW1 6126   4.412   4.380   3.458 -0.1049  0.5668  0.9618
 1997SOL    HW2 6127   4.373   4.280   3.566 -2.0283 -0.8880 -0.9783
 1998SOL     OW 6128   2.245   0.850   2.939  0.8779  0.1265  0.0794
 1998SOL    HW1 6129   2.214   0.801   2.863 -0.7058  0.6955  0.3303
 1998SOL    HW2 6130   2.244   0.786   3.010  0.0838  0.1866  0.1256
 1999SOL     OW 6131   4.119   2.924   4.674  0.1169 -0.1650 -0.0372
 1999SOL    HW1 6132   4.082   2.978   4.745 -0.5332  2.0690 -1.9600
 1999SOL    HW2 6133   4.207   2.959   4.661  1.1513 -2.1572  1.1791
 2000SOL     OW 6134   0.543   1.772   0.676  0.1170 -0.4651  0.1476
 2000SOL    HW1 6135   0.621   1.723   0.651 -0.6627 -1.0577 -1.2369
 2000SOL    HW2 6136   0.572   1.863   0.680  0.9357 -0.7069 -0.0565
 2001SOL     OW 6137   1.135   1.529   2.633  0.3209  0.1674 -0.1090
 2001SOL    HW1 6138   1.092   1.500   2.552 -0.3157  0.2174  0.2007
 2001SOL    HW2 6139   1.198   1.595   2.604  0.2322  0.0519 -0.5839
 2002SOL     OW 6140   4.280   1.080   4.102  0.1329  0.3946  0.3158
 2002SOL    HW1 6141   4.234   1.029   4.036  0.0190  0.5683  0.2602
 2002SOL    HW2 6142   4.367   1.094   4.066 -0.7718  2.9626 -1.1235
 2003SOL     OW 6143   4.130   3.426   3.081  0.2650  0.7578 -0.2844
 2003SOL    HW1 6144   4.200   3.361   3.095 -1.9838 -1.7655  0.0113
 2003SOL    HW2 6145   4.102   3.412   2.991 -0.7145  0.8409  0.0010
 2004SOL     OW 6146   4.570   2.984   1.501  0.5460  0.8045  0.3372
 2004SOL    HW1 6147   4.551   2.890   1.498 -1.2972  1.1500  0.1337
 2004SOL    HW2 6148   4.585   3.008   1.409  2.2610  0.5026  0.5132
 2005SOL     OW 6149   0.352   2.378   1.818  0.1184 -0.0400  0.1127
 2005SOL    HW1 6150   0.381   2.287   1.831  0.5346  0.2458  1.3267
 2005SOL    HW2 6151   0.419   2.416   1.761  0.1635 -0.3809 -0.0653
 2006SOL     OW 6152   4.048   4.411   0.659 -0.3448 -0.5396  0.1608
 2006SOL    HW1 6153   4.086   4.495   0.684 -1.4347 -0.6272  2.3402
 2006SOL    HW2 6154   4.095   4.387   0.579 -1.7129  3.3149 -2.1174
 2007SOL     OW 6155   4.601   3.281   1.354 -0.5669 -0.0404  0.2570
 2007SOL    HW1 6156   4.559   3.253   1.273 -0.7440 -0.6288  0.5491
 2007SOL    HW2 6157   4.687   3.239   1.352 -0.7852 -0.5165  0.6364
 2008SOL     OW 6158   0.360   4.729   2.700  0.1999 -0.4462  0.3791
 2008SOL    HW1 6159   0.330   4.650   2.746  0.2918  0.1910  1.5756
 2008SOL    HW2 6160   0.328   4.802   2.753  1.2465  0.3056  0.0220
 2009SOL     OW 6161   0.725   0.489   2.293 -0.2653  0.0195 -0.7357
 2009SOL    HW1 6162   0.751   0.579   2.275 -0.5255  0.5879  1.4844
 2009SOL    HW2 6163   0.792   0.455   2.351 -2.0436  0.0464  1.4724
 2010SOL     OW 6164   3.490   0.664   2.108  0.3522 -0.3004  0.4823
 2010SOL    HW1 6165   3.405   0.686   2.069  0.4691 -0.4787  0.1144
 2010SOL    HW2 6166   3.553   0.718   2.059  0.2724  1.2022  1.9680
 2011SOL     OW 6167   4.318   3.767   4.122  0.2412  0.0159  0.7148
 2011SOL    HW1 6168   4.395   3.812   4.156 -0.4087  1.1609  0.7079
 2011SOL    HW2 6169   4.334   3.759   4.028 -0.0358  1.1006  0.5560
 2012SOL     OW 6170   3.738   2.285   0.422  0.7638  0.1705  0.3849
 2012SOL    HW1 6171   3.658   2.255   0.379  0.3128  0.1409  1.2255
 2012SOL    HW2 6172   3.808   2.259   0.363  0.0425  2.2251 -1.5341
 2013SOL     OW 6173   1.668   0.273   0.485 -0.6376 -0.7778 -0.3512
 2013SOL    HW1 6174   1.670   0.226   0.402 -0.5061 -2.5139  0.5965
 2013SOL    HW2 6175   1.740   0.237   0.536 -2.6524 -2.1740  1.7389
 2014SOL     OW 6176   2.758   0.626   4.521  0.7476 -0.3072 -0.4403
 2014SOL    HW1 6177   2.800   0.625   4.607  0.5345 -0.5673 -0.3355
 2014SOL    HW2 6178   2.676   0.578   4.534 -0.2314  1.3511 -0.3225
 2015SOL     OW 6179   1.272   2.547   5.008 -0.3284  0.4235  0.2437
 2015SOL    HW1 6180   1.201   2.494   5.043  2.2225 -2.7999  1.0347
 2015SOL    HW2 6181   1.247   2.564   4.917 -1.0394 -2.7978 -0.2690
 2016SOL     OW 6182   0.157   2.860   2.047  0.9473 -0.5889 -0.4583
 2016SOL    HW1 6183   0.227   2.921   2.067  1.1900 -1.1548  0.4388
 2016SOL    HW2 6184   0.089   2.879   2.111  0.2902 -0.0955 -1.2708
 2017SOL     OW 6185   4.348   4.433   0.502 -0.3863 -0.0155 -0.3743
 2017SOL    HW1 6186   4.399   4.454   0.581  1.5806  1.2353 -1.8780
 2017SOL    HW2 6187   4.318   4.518   0.470 -0.0724 -0.3710 -1.6517
 2018SOL     OW 6188   4.722   1.994   2.593 -0.1313  0.1125 -0.7920
 2018SOL    HW1 6189   4.747   1.958   2.508  0.9662  2.6478 -1.6511
 2018SOL    HW2 6190   4.698   2.085   2.574 -3.8201 -0.2646  1.0438
 2019SOL     OW 6191   2.232   3.193   1.578  0.1895 -0.3863  0.1750
 2019SOL    HW1 6192   2.169   3.205   1.507 -2.9089 -2.6827  2.2819
 2019SOL    HW2 6193   2.292   3.125   1.546  1.4432  1.4577 -1.6595
 2020SOL     OW 6194   4.842   1.712   3.955 -0.6230  0.0708  0.0303
 2020SOL    HW1 6195   4.792   1.677   3.882 -0.7511 -1.4915  0.8330
 2020SOL    HW2 6196   4.931   1.679   3.942 -0.3585  0.8063 -0.0726
 2021SOL     OW 6197   1.526   1.087   1.745  0.3196  0.0436  0.2684
 2021SOL    HW1 6198   1.558   1.021   1.807  0.8787 -1.3282 -1.3947
 2021SOL    HW2 6199   1.594   1.091   1.677  0.2726  2.3165  0.2623
 2022SOL     OW 6200   1.016   1.231   0.551  0.2148 -0.2171 -0.5032
 2022SOL    HW1 6201   1.042   1.168   0.484  1.0509  0.2352 -0.6201
 2022SOL    HW2 6202   1.099   1.261   0.588 -0.1846  0.6892 -0.3370
 2023SOL     OW 6203   0.828   3.810   1.662 -0.3681  0.1321 -0.3310
 2023SOL    HW1 6204   0.827   3.745   1.592  0.0814 -0.1835 -0.0490
 2023SOL    HW2 6205   0.754   3.868   1.642  0.2909  0.5787 -1.5493
 2024SOL     OW 6206   0.541   0.238   0.764 -0.3507 -0.1973 -0.4787
 2024SOL    HW1 6207   0.532   0.227   0.859 -2.1484 -1.4296 -0.7320
 2024SOL    HW2 6208   0.631   0.267   0.752 -0.2107  0.4348  1.6314
 2025SOL     OW 6209   3.410   3.567   2.782  0.0449 -0.5877 -0.0919
 2025SOL    HW1 6210   3.493   3.606   2.756 -0.7041  1.0532 -0.1379
 2025SOL    HW2 6211   3.431   3.514   2.859  0.7919  1.6359  1.3421
 2026SOL     OW 6212   2.856   0.863   3.479 -0.0517 -0.0197  0.1733
 2026SOL    HW1 6213   2.766   0.843   3.455 -0.1419  2.8653 -2.6050
 2026SOL    HW2 6214   2.849   0.940   3.535  0.6738 -0.6624  1.1767
 2027SOL     OW 6215   0.626   3.779   3.893 -0.2274 -0.0726 -0.2590
 2027SOL    HW1 6216   0.564   3.852   3.885  0.4115  0.2851 -2.4924
 2027SOL    HW2 6217   0.571   3.701   3.887 -0.7189  0.2178  0.3035
 2028SOL     OW 6218   3.805   2.744   1.980  0.0352 -0.1501 -0.4396
 2028SOL    HW1 6219   3.795   2.835   1.951  0.3231 -0.4780 -1.6149
 2028SOL    HW2 6220   3.715   2.710   1.983  0.0602 -0.5030 -2.3482
 2029SOL     OW 6221   4.621   2.999   1.873  0.6524  0.3226  0.4181
 2029SOL    HW1 6222   4.680   3.013   1.799 -0.4298 -0.9611 -0.7540
 2029SOL    HW2 6223   4.594   2.907   1.864 -2.3742  1.1235  0.1920
 2030SOL     OW 6224   2.579   4.439   0.485 -0.3471 -0.2496  0.0752
 2030SOL    HW1 6225   2.510   4.458   0.422  1.0456  1.1491 -1.1023
 2030SOL    HW2 6226   2.648   4.503   0.466  0.8606 -0.9328  1.8662
 2031SOL     OW 6227   4.830   4.741   4.309 -0.1127  0.2240  0.5999
 2031SOL    HW1 6228   4.896   4.707   4.247 -0.8046  1.3856 -0.8401
 2031SOL    HW2 6229   4.765   4.672   4.314 -2.1025  1.5064 -3.2038
 2032SOL     OW 6230   1.197   0.093   1.419  0.1841  0.2372  0.0742
 2032SOL    HW1 6231   1.284   0.129   1.440  0.2695  0.0383  0.0637
 2032SOL    HW2 6232   1.206   0.059   1.329 -0.5262  2.2094 -0.7959
 2033SOL     OW 6233   1.338   1.012   1.986 -0.3568  0.4027  0.0492
 2033SOL    HW1 6234   1.415   0.966   2.021 -0.2661 -0.2288 -0.9425
 2033SOL    HW2 6235   1.324   0.973   1.900 -0.9842  1.4515 -0.3391
 2034SOL     OW 6236   2.564   4.207   1.423 -0.3670  0.1064 -0.7172
 2034SOL    HW1 6237   2.583   4.297   1.449  1.2694 -0.1574 -0.8869
 2034SOL    HW2 6238   2.476   4.190   1.457 -0.2813  1.4116  0.2169
 2035SOL     OW 6239   4.195   4.355   2.756 -0.3536  0.9126 -0.2390
 2035SOL    HW1 6240   4.252   4.313   2.821 -0.2393 -0.9259 -1.4418
 2035SOL    HW2 6241   4.248   4.355   2.676 -2.7591 -3.3956 -2.1831
 2036SOL     OW 6242   1.530   2.966   1.458  0.0270  0.3561  0.4348
 2036SOL    HW1 6243   1.565   2.947   1.545  0.6753 -0.7109 -0.0344
 2036SOL    HW2 6244   1.435   2.953   1.467  0.2143 -1.0043  0.6966
 2037SOL     OW 6245   0.329   1.876   4.263 -0.6539  0.1260  0.2194
 2037SOL    HW1 6246   0.310   1.860   4.355  0.7482 -0.8083  0.3800
 2037SOL    HW2 6247   0.339   1.789   4.225 -0.7474  0.5102 -0.7195
 2038SOL     OW 6248   2.377   2.071   3.134  0.0386 -0.2223  0.9194
 2038SOL    HW1 6249   2.386   2.026   3.218  0.5328  2.2784  2.3304
 2038SOL    HW2 6250   2.456   2.049   3.085 -0.1651 -1.5641  1.1711
 2039SOL     OW 6251   1.785   3.872   0.307  0.8470  0.2257  0.0168
 2039SOL    HW1 6252   1.799   3.864   0.213  0.4986  0.2144 -0.0351
 2039SOL    HW2 6253   1.776   3.782   0.338 -0.0688  0.2662 -0.1024
 2040SOL     OW 6254   2.791   1.480   2.358 -0.0134  0.3323  0.2370
 2040SOL    HW1 6255   2.837   1.401   2.386 -4.4843 -2.3745  0.9327
 2040SOL    HW2 6256   2.774   1.466   2.265 -1.2507  0.1915  0.4721
 2041SOL     OW 6257   2.506   4.787   1.707  0.2190 -0.3628  0.1739
 2041SOL    HW1 6258   2.568   4.821   1.643 -2.1746  0.0393 -2.1282
 2041SOL    HW2 6259   2.507   4.852   1.778  0.1636  1.3374 -1.3051
 2042SOL     OW 6260   4.285   4.791   2.094  0.1168  0.5457  0.1792
 2042SOL    HW1 6261   4.201   4.833   2.117  0.4582  1.8460 -0.7803
 2042SOL    HW2 6262   4.351   4.858   2.114  0.7478  0.2256 -0.7683
 2043SOL     OW 6263   4.861   0.164   2.540 -0.4451  0.1783  0.1393
 2043SOL    HW1 6264   4.820   0.097   2.486 -1.8489  0.5738  0.6878
 2043SOL    HW2 6265   4.942   0.122   2.571 -1.8559 -1.7616  1.4611
 2044SOL     OW 6266   4.969   2.460   2.442  0.1210  0.1107 -0.2232
 2044SOL    HW1 6267   4.890   2.513   2.439  0.2465  0.6201  2.5292
 2044SOL    HW2 6268   4.976   2.421   2.355 -1.4760  2.4284 -1.4914
 2045SOL     OW 6269   0.611   3.285   4.434  0.2726  0.1041 -0.1360
 2045SOL    HW1 6270   0.550   3.218   4.403 -0.1964 -0.1805  1.3167
 2045SOL    HW2 6271   0.578   3.367   4.397  0.9895 -0.4549 -2.1281
 2046SOL     OW 6272   3.501   3.550   1.505  0.0775  0.0503 -0.4756
 2046SOL    HW1 6273   3.492   3.619   1.439 -0.5270 -1.0961 -1.6170
 2046SOL    HW2 6274   3.477   3.469   1.460 -2.2728 -0.5473  1.6433
 2047SOL     OW 6275   2.118   0.723   1.759  0.7225  0.0803  0.3911
 2047SOL    HW1 6276   2.086   0.635   1.740  1.6425 -0.6787  2.0747
 2047SOL    HW2 6277   2.067   0.781   1.703  1.5138 -1.6802 -2.3107
 2048SOL     OW 6278   1.297   4.893   2.114  0.6267  0.1911 -0.1258
 2048SOL    HW1 6279   1.279   4.899   2.020  1.6684  0.8237 -0.2972
 2048SOL    HW2 6280   1.265   4.806   2.139 -1.7702  0.8703 -0.5778
 2049SOL     OW 6281   2.957   2.527   2.075  0.1487 -0.1844  0.2651
 2049SOL    HW1 6282   2.954   2.620   2.053  1.5552 -0.1032  0.3312
 2049SOL    HW2 6283   2.938   2.483   1.993  1.7551  0.1620 -0.3332
 2050SOL     OW 6284   4.140   2.587   0.289  0.3594 -0.0683  0.3209
 2050SOL    HW1 6285   4.097   2.540   0.218  1.6330  0.8580 -1.1435
 2050SOL    HW2 6286   4.186   2.519   0.338 -2.1896 -1.0034  1.6132
 2051SOL     OW 6287   1.066   2.828   1.330 -0.2082  0.4964  0.2191
 2051SOL    HW1 6288   1.112   2.754   1.370 -1.8957 -1.6885 -1.6641
 2051SOL    HW2 6289   1.008   2.789   1.265 -2.4326  3.3445  0.2729
 2052SOL     OW 6290   1.712   4.225   2.205  0.2828 -0.5478 -0.3139
 2052SOL    HW1 6291   1.773   4.298   2.204 -0.0758 -0.2470 -0.5557
 2052SOL    HW2 6292   1.631   4.262   2.240  0.2068 -0.9188 -0.0876
 2053SOL     OW 6293   3.162   4.496   4.590 -0.0799  0.1148 -0.5658
 2053SOL    HW1 6294   3.149   4.578   4.543  1.5999  0.3730 -0.6417
 2053SOL    HW2 6295   3.118   4.510   4.675 -2.0347  0.0931 -1.5132
 2054SOL     OW 6296   2.850   4.201   2.276 -0.4494  0.5054 -0.1840
 2054SOL    HW1 6297   2.804   4.189   2.192  0.6319 -1.8926 -0.5017
 2054SOL    HW2 6298   2.933   4.241   2.252 -0.7804  1.2897 -0.0499
 2055SOL     OW 6299   2.261   1.175   2.671 -0.3498  0.0767  0.4322
 2055SOL    HW1 6300   2.335   1.165   2.731  0.0971  2.2772  0.3350
 2055SOL    HW2 6301   2.300   1.178   2.584 -0.8268 -1.2240  0.1439
 2056SOL     OW 6302   1.988   2.982   0.749 -0.0508 -0.5767 -0.3813
 2056SOL    HW1 6303   1.914   2.965   0.807  0.2632  0.9637  0.5435
 2056SOL    HW2 6304   2.051   3.029   0.804  0.5573  0.3144 -1.7800
 2057SOL     OW 6305   0.554   4.905   2.621  0.9400  0.5785  0.1575
 2057SOL    HW1 6306   0.507   4.826   2.650  2.3872  0.1527  1.4306
 2057SOL    HW2 6307   0.601   4.877   2.543  0.6431  0.4735  0.0134
 2058SOL     OW 6308   2.037   1.071   4.980  0.1381 -0.3532  0.2175
 2058SOL    HW1 6309   2.040   1.148   5.038 -0.4250 -0.3626  0.2649
 2058SOL    HW2 6310   2.111   1.083   4.921 -0.1988  0.4577 -0.0626
 2059SOL     OW 6311   1.872   1.806   4.332 -0.1432 -0.4779 -0.8278
 2059SOL    HW1 6312   1.812   1.880   4.336 -1.2042 -1.3701  1.4032
 2059SOL    HW2 6313   1.859   1.769   4.244 -0.9824  0.8376 -1.2834
 2060SOL     OW 6314   2.379   0.240   3.883  0.7730 -0.4734  0.6287
 2060SOL    HW1 6315   2.364   0.148   3.905  0.9696 -0.7389 -0.2972
 2060SOL    HW2 6316   2.306   0.262   3.825  1.2942 -0.3492  0.0203
 2061SOL     OW 6317   0.524   0.414   4.063 -0.2657  0.0179  0.3078
 2061SOL    HW1 6318   0.486   0.498   4.088 -1.7973 -1.6489  4.4576
 2061SOL    HW2 6319   0.614   0.434   4.038 -0.6647  2.8839  0.8321
 2062SOL     OW 6320   3.018   4.024   3.016 -0.5615 -0.3283  0.0993
 2062SOL    HW1 6321   2.990   4.098   3.069  0.4810 -1.7065  2.7543
 2062SOL    HW2 6322   3.080   4.061   2.954  0.0944  1.0241  1.5062
 2063SOL     OW 6323   1.443   3.044   4.609 -0.3651 -0.2842  0.3149
 2063SOL    HW1 6324   1.536   3.066   4.617 -0.3694 -0.1831  0.1097
 2063SOL    HW2 6325   1.418   3.013   4.696 -0.6989  1.7790  1.0057
 2064SOL     OW 6326   1.151   0.475   1.282 -0.6297  0.4254  0.7728
 2064SOL    HW1 6327   1.088   0.545   1.268  0.4229  1.4641  1.0707
 2064SOL    HW2 6328   1.181   0.486   1.372  1.3420  1.1419  0.0769
 2065SOL     OW 6329   3.569   4.964   4.474 -0.4618 -0.8150  0.4987
 2065SOL    HW1 6330   3.605   5.050   4.495 -0.5067 -0.4265 -0.8963
 2065SOL    HW2 6331   3.618   4.902   4.528  1.3207 -0.1545 -0.3010
 2066SOL     OW 6332   0.092   4.564   0.481 -0.1273 -0.0706  0.0892
 2066SOL    HW1 6333   0.169   4.554   0.536 -1.0853 -2.3686  1.1291
 2066SOL    HW2 6334   0.077   4.477   0.444 -1.0745  0.7971 -1.6954
 2067SOL     OW 6335   2.102   3.676   0.221  0.1804 -0.3137 -0.1821
 2067SOL    HW1 6336   2.080   3.588   0.189 -2.2800 -0.3300  1.3022
 2067SOL    HW2 6337   2.075   3.735   0.150 -0.2271 -0.6300 -0.2940
 2068SOL     OW 6338   2.418   0.220   4.743  0.1040  0.4081 -0.1433
 2068SOL    HW1 6339   2.445   0.146   4.689 -0.3076 -0.6438  1.0436
 2068SOL    HW2 6340   2.499   0.266   4.763  0.4292 -0.0289 -0.4457
 2069SOL     OW 6341   0.336   2.685   3.377  0.5303  0.7060  0.2634
 2069SOL    HW1 6342   0.304   2.630   3.448  2.3860 -0.8788 -0.0245
 2069SOL    HW2 6343   0.258   2.726   3.341 -0.5852  0.6348  2.4340
 2070SOL     OW 6344   2.862   3.065   3.209  0.1542 -0.0240  0.5405
 2070SOL    HW1 6345   2.868   3.160   3.219  0.1161 -0.1721  2.4523
 2070SOL    HW2 6346   2.770   3.045   3.226 -0.1055 -0.3267 -1.0392
 2071SOL     OW 6347   3.195   2.277   2.493  0.3910  0.2122  0.2428
 2071SOL    HW1 6348   3.257   2.203   2.489 -0.7818 -0.7931 -0.0196
 2071SOL    HW2 6349   3.189   2.307   2.403  0.2502  0.0881  0.2098
 2072SOL     OW 6350   0.670   2.266   2.107 -1.1363 -0.5132  0.4746
 2072SOL    HW1 6351   0.682   2.301   2.019 -0.8356 -1.6676  0.0307
 2072SOL    HW2 6352   0.661   2.171   2.094  1.8990 -1.1351  1.9061
 2073SOL     OW 6353   2.623   1.105   0.674  0.1457  0.7103  0.1759
 2073SOL    HW1 6354   2.718   1.105   0.682  0.1986 -0.5826 -0.2105
 2073SOL    HW2 6355   2.592   1.070   0.758  0.0667  0.3032 -0.0173
 2074SOL     OW 6356   4.803   3.279   0.215 -0.2933 -0.6800 -0.2481
 2074SOL    HW1 6357   4.781   3.311   0.127  1.4681  0.8445 -0.1801
 2074SOL    HW2 6358   4.796   3.184   0.208 -0.6760 -0.5607 -1.8959
 2075SOL     OW 6359   1.884   4.976   1.215 -0.3071 -0.2446  0.0988
 2075SOL    HW1 6360   1.937   5.042   1.171 -2.2104  3.9521  3.3799
 2075SOL    HW2 6361   1.947   4.924   1.265  1.1753 -0.4138 -1.8189
 2076SOL     OW 6362   2.099   2.905   2.850  0.1956  0.3947 -0.6306
 2076SOL    HW1 6363   2.178   2.925   2.900  1.5810  0.1364 -2.5746
 2076SOL    HW2 6364   2.131   2.876   2.764 -2.0251  1.1685 -1.8287
 2077SOL     OW 6365   0.982   2.266   1.886  0.8119  0.9959 -0.1653
 2077SOL    HW1 6366   0.972   2.190   1.944  1.4438  0.9252 -0.1426
 2077SOL    HW2 6367   0.923   2.248   1.812  1.8888 -0.1288 -0.7878
 2078SOL     OW 6368   4.079   0.844   2.394  0.4454 -0.1805 -0.4266
 2078SOL    HW1 6369   4.161   0.865   2.439 -0.4773  0.8845  0.8732
 2078SOL    HW2 6370   4.039   0.776   2.448 -1.5151  2.3578  1.5620
 2079SOL     OW 6371   2.835   4.828   4.588 -0.1407 -0.1229  0.6525
 2079SOL    HW1 6372   2.793   4.846   4.504 -0.9676  0.0303  1.0846
 2079SOL    HW2 6373   2.916   4.783   4.565 -0.4991 -0.3553 -0.2174
 2080SOL     OW 6374   2.271   2.724   2.400  0.1192 -0.1730  0.1977
 2080SOL    HW1 6375   2.297   2.792   2.337 -0.6870  0.2891  0.3391
 2080SOL    HW2 6376   2.350   2.671   2.413 -0.2596 -1.8324 -3.0967
 2081SOL     OW 6377   1.029   4.066   1.486 -0.3801 -0.3228 -0.3189
 2081SOL    HW1 6378   1.047   4.129   1.417  0.7467 -0.9825 -0.6625
 2081SOL    HW2 6379   0.948   4.096   1.526  1.3154  2.8083  1.1871
 2082SOL     OW 6380   0.516   0.320   0.241 -0.4936  0.1858  0.3203
 2082SOL    HW1 6381   0.595   0.360   0.275 -0.7124  1.5007 -0.6407
 2082SOL    HW2 6382   0.546   0.268   0.166 -0.2775 -1.0779  1.2588
 2083SOL     OW 6383   0.444   1.249   2.990 -0.1691 -0.4300 -0.0276
 2083SOL    HW1 6384   0.469   1.294   3.071 -0.0039  0.1884 -0.4154
 2083SOL    HW2 6385   0.478   1.160   3.002  1.2598  0.0738 -0.0577
 2084SOL     OW 6386   0.960   2.434   3.812 -0.1860  0.3438 -0.0060
 2084SOL    HW1 6387   0.926   2.516   3.848  2.9156  1.1805  1.2753
 2084SOL    HW2 6388   1.019   2.461   3.742  2.3832 -0.5735  1.6777
 2085SOL     OW 6389   4.329   3.148   1.604  0.4199 -0.1436  0.3840
 2085SOL    HW1 6390   4.402   3.090   1.583  0.6214  0.2275  0.0621
 2085SOL    HW2 6391   4.364   3.236   1.596  0.2841  0.0292  1.4834
 2086SOL     OW 6392   0.384   0.369   1.298  0.5602  0.1717 -0.7829
 2086SOL    HW1 6393   0.474   0.364   1.330  0.2641 -2.3414 -0.2104
 2086SOL    HW2 6394   0.337   0.415   1.367  1.2241  0.7639 -0.7070
 2087SOL     OW 6395   0.521   2.841   2.311 -0.2559  0.7513 -0.0570
 2087SOL    HW1 6396   0.559   2.835   2.224  1.3755  2.2926  0.4895
 2087SOL    HW2 6397   0.543   2.759   2.354  0.5648  0.7377 -0.4929
 2088SOL     OW 6398   4.307   3.255   0.618 -0.0403  0.6559 -0.0037
 2088SOL    HW1 6399   4.359   3.175   0.621 -0.8383 -0.1143 -3.0323
 2088SOL    HW2 6400   4.365   3.321   0.581 -0.6282  0.2869 -1.6286
 2089SOL     OW 6401   0.547   4.223   3.025 -0.2479 -0.4393 -0.2233
 2089SOL    HW1 6402   0.588   4.137   3.033 -0.0621 -0.2288  1.3350
 2089SOL    HW2 6403   0.598   4.268   2.957  0.7960 -0.9130  0.2317
 2090SOL     OW 6404   2.038   0.561   0.897 -0.6489 -0.3907 -0.1698
 2090SOL    HW1 6405   2.044   0.572   0.992 -0.3899 -0.9949 -0.1098
 2090SOL    HW2 6406   2.033   0.650   0.863 -0.5660 -0.1620  0.3994
 2091SOL     OW 6407   0.699   0.302   1.742 -0.5964 -0.1839  0.1510
 2091SOL    HW1 6408   0.686   0.255   1.824 -3.0530 -0.2923 -0.2307
 2091SOL    HW2 6409   0.648   0.382   1.752 -1.0020 -0.2391 -1.3040
 2092SOL     OW 6410   4.009   0.578   0.535 -0.3746 -0.0094  0.3874
 2092SOL    HW1 6411   3.930   0.631   0.542 -0.7934 -0.6286  0.4673
 2092SOL    HW2 6412   4.035   0.586   0.444 -0.3642  0.4342  0.4298
 2093SOL     OW 6413   0.379   1.725   2.336 -0.0765  0.3437 -0.1412
 2093SOL    HW1 6414   0.371   1.634   2.306  1.9976 -0.0410  0.3358
 2093SOL    HW2 6415   0.332   1.727   2.420 -0.7621 -0.0881 -0.5075
 2094SOL     OW 6416   2.048   2.738   1.468  0.6204  0.5637 -0.6255
 2094SOL    HW1 6417   2.081   2.736   1.558  1.0368  0.5699 -0.7715
 2094SOL    HW2 6418   2.008   2.824   1.459  1.8638  1.1472 -0.8738
 2095SOL     OW 6419   4.226   0.934   3.886  0.0646 -0.0457 -0.3104
 2095SOL    HW1 6420   4.212   0.941   3.791 -0.2234  0.8713 -0.2094
 2095SOL    HW2 6421   4.160   0.871   3.915  0.0400 -0.2006 -0.6835
 2096SOL     OW 6422   0.308   3.060   0.874  0.1227 -0.6783  0.5086
 2096SOL    HW1 6423   0.386   3.029   0.921  0.3107  0.6583  1.1308
 2096SOL    HW2 6424   0.333   3.147   0.842 -0.8256 -0.6013 -0.0531
 2097SOL     OW 6425   1.280   3.951   0.845  0.5149  0.0066 -0.4136
 2097SOL    HW1 6426   1.365   3.953   0.889  1.0721 -0.3608 -1.4387
 2097SOL    HW2 6427   1.264   4.042   0.821  1.3114 -0.1073 -1.4646
 2098SOL     OW 6428   3.108   0.745   2.358 -0.7690 -0.4528 -0.0598
 2098SOL    HW1 6429   3.029   0.717   2.313 -1.1195 -0.4210  0.5204
 2098SOL    HW2 6430   3.163   0.783   2.290 -1.2371 -0.5084 -0.4707
 2099SOL     OW 6431   4.868   1.603   2.418 -0.0257 -0.4273 -0.2197
 2099SOL    HW1 6432   4.870   1.546   2.341 -0.6008  1.9352 -2.1124
 2099SOL    HW2 6433   4.833   1.686   2.385  1.2192  1.1987  2.2566
 2100SOL     OW 6434   4.823   2.463   1.760 -0.1895  0.8229  0.4457
 2100SOL    HW1 6435   4.823   2.512   1.677 -0.4650 -0.5847 -0.4265
 2100SOL    HW2 6436   4.913   2.468   1.791 -0.2662  2.0853  0.5267
 2101SOL     OW 6437   2.262   0.923   4.856 -0.1385  0.1714 -0.0584
 2101SOL    HW1 6438   2.305   0.909   4.940 -1.3263  0.1850  0.5731
 2101SOL    HW2 6439   2.244   0.834   4.823  0.3649  0.1655 -0.3305
 2102SOL     OW 6440   4.512   2.894   0.374 -0.6435  0.3428  0.3203
 2102SOL    HW1 6441   4.575   2.824   0.357 -1.5062 -0.8059  1.5523
 2102SOL    HW2 6442   4.491   2.930   0.287 -0.5322 -1.2765 -0.4170
 2103SOL     OW 6443   2.153   1.202   1.666  0.4647  0.1127 -0.5076
 2103SOL    HW1 6444   2.072   1.231   1.709  0.0950  0.0216 -1.1406
 2103SOL    HW2 6445   2.220   1.211   1.734  0.2554  1.8667 -0.4917
 2104SOL     OW 6446   3.317   1.846   1.812  0.1304  0.3503  0.8506
 2104SOL    HW1 6447   3.383   1.778   1.800  0.3437  0.7971 -0.7522
 2104SOL    HW2 6448   3.282   1.831   1.900 -2.0936 -3.8119 -0.5008
 2105SOL     OW 6449   2.045   3.674   1.628 -1.1557  0.5019 -0.2077
 2105SOL    HW1 6450   2.020   3.758   1.589 -1.3554 -0.8635 -3.2608
 2105SOL    HW2 6451   2.134   3.688   1.661 -0.7907  1.6675 -1.5964
 2106SOL     OW 6452   3.410   4.858   1.253  0.1478  0.5739  0.2251
 2106SOL    HW1 6453   3.451   4.944   1.259 -0.2825  0.9144 -1.2848
 2106SOL    HW2 6454   3.403   4.828   1.344  0.8641  1.8569  0.7249
 2107SOL     OW 6455   0.119   0.691   3.404  0.4791  0.0278  0.4562
 2107SOL    HW1 6456   0.139   0.602   3.376  0.5660  0.4344 -0.8156
 2107SOL    HW2 6457   0.061   0.725   3.336 -1.4161  0.1929  2.0831
 2108SOL     OW 6458   2.599   4.356   1.948  0.0040  0.3217  0.2120
 2108SOL    HW1 6459   2.665   4.424   1.935  0.7483 -0.4360 -0.0867
 2108SOL    HW2 6460   2.649   4.280   1.978 -0.8746  0.0534  1.0604
 2109SOL     OW 6461   0.434   3.581   3.840 -0.0001 -0.1414  0.5116
 2109SOL    HW1 6462   0.448   3.489   3.817 -1.7342 -0.0788 -1.0425
 2109SOL    HW2 6463   0.357   3.580   3.897 -0.2261  0.3659  0.2218
 2110SOL     OW 6464   1.302   2.239   0.026  0.3359  0.2394  0.1688
 2110SOL    HW1 6465   1.326   2.153  -0.009  0.6441 -0.1445  1.3050
 2110SOL    HW2 6466   1.365   2.299  -0.013  1.6499 -0.4039  1.2116
 2111SOL     OW 6467   0.450   0.374   3.074 -0.7872  0.8515 -0.4309
 2111SOL    HW1 6468   0.455   0.461   3.034 -1.6876  1.6521  1.1091
 2111SOL    HW2 6469   0.461   0.314   3.000  0.1396  2.2510 -1.4950
 2112SOL     OW 6470   1.992   3.526   1.367  0.1891  0.2723 -0.0419
 2112SOL    HW1 6471   2.048   3.582   1.313  2.2218 -1.1585  0.4519
 2112SOL    HW2 6472   2.014   3.551   1.457  0.8253 -1.0162  0.1724
 2113SOL     OW 6473   3.261   3.930   3.748 -0.3979  0.1474  0.2784
 2113SOL    HW1 6474   3.230   3.880   3.823 -0.4049  0.2459  0.3407
 2113SOL    HW2 6475   3.356   3.933   3.758 -0.5557  2.5965  1.8377
 2114SOL     OW 6476   3.778   0.278   1.628 -0.2124 -0.0025  0.3949
 2114SOL    HW1 6477   3.762   0.222   1.552  0.9301 -0.3857  0.4250
 2114SOL    HW2 6478   3.757   0.223   1.704  0.3439 -0.2035  0.4060
 2115SOL     OW 6479   3.578   1.573   3.426 -0.5388 -0.2865  0.4543
 2115SOL    HW1 6480   3.626   1.582   3.343  0.7083  0.3211  1.2147
 2115SOL    HW2 6481   3.628   1.626   3.488 -1.1052 -1.2349  1.7527
 2116SOL     OW 6482   3.252   2.299   1.498  0.6905 -0.0703  0.3484
 2116SOL    HW1 6483   3.321   2.235   1.513  0.2540 -0.3560  1.1925
 2116SOL    HW2 6484   3.180   2.272   1.556 -0.0131  0.3978 -0.2802
 2117SOL     OW 6485   3.020   0.616   0.642 -0.0895  0.1672  0.0089
 2117SOL    HW1 6486   3.072   0.588   0.565 -0.1763 -1.5388  0.5210
 2117SOL    HW2 6487   2.931   0.589   0.621 -0.2643  0.4924  0.3383
 2118SOL     OW 6488   2.146   1.050   2.382  0.0671  0.0333 -0.1489
 2118SOL    HW1 6489   2.184   1.138   2.383 -2.1325  1.0450  0.6464
 2118SOL    HW2 6490   2.052   1.065   2.383 -0.3770 -2.3272  1.8820
 2119SOL     OW 6491   2.506   4.778   2.777  0.4079 -0.4868  0.2494
 2119SOL    HW1 6492   2.444   4.758   2.848 -0.1095 -0.3375 -0.1578
 2119SOL    HW2 6493   2.569   4.837   2.817 -0.1557 -0.0197  0.4636
 2120SOL     OW 6494   1.013   3.459   1.671 -0.6175  0.2961  0.6407
 2120SOL    HW1 6495   0.988   3.392   1.735 -1.0708 -0.7130 -0.5452
 2120SOL    HW2 6496   1.108   3.462   1.675 -0.6057 -0.2470  0.8893
 2121SOL     OW 6497   0.431   0.033   2.275  0.2598  0.1096  0.1732
 2121SOL    HW1 6498   0.432   0.115   2.225  0.8534 -0.3055 -0.5140
 2121SOL    HW2 6499   0.510  -0.013   2.246  0.8848  0.0702  1.8633
 2122SOL     OW 6500   1.646   2.743   4.090 -0.2094 -0.1039  0.1240
 2122SOL    HW1 6501   1.623   2.834   4.106  0.1973 -0.2525  1.7040
 2122SOL    HW2 6502   1.575   2.693   4.131  0.8052 -0.5073  1.4352
 2123SOL     OW 6503   4.107   3.152   4.888 -0.3743  0.2582  0.2918
 2123SOL    HW1 6504   4.136   3.198   4.967  1.8956 -1.3577  0.4915
 2123SOL    HW2 6505   4.047   3.085   4.920 -1.2554  1.0653  0.3564
 2124SOL     OW 6506   3.999   3.717   3.106 -0.5217  0.9148  0.0175
 2124SOL    HW1 6507   3.975   3.640   3.158 -1.2214  0.2495 -1.2268
 2124SOL    HW2 6508   4.015   3.786   3.171 -1.0192  0.0347  1.1171
 2125SOL     OW 6509   3.533   4.600   3.509  0.5490  0.2273 -0.0665
 2125SOL    HW1 6510   3.509   4.663   3.441 -1.9803 -0.8195 -0.2523
 2125SOL    HW2 6511   3.586   4.534   3.464 -0.8833 -0.3204 -1.0054
 2126SOL     OW 6512   2.042   1.827   3.615 -0.2049  0.2996 -0.4534
 2126SOL    HW1 6513   2.057   1.889   3.543 -1.3421  0.5714 -0.4664
 2126SOL    HW2 6514   2.067   1.742   3.578  0.4388  0.6046 -0.7465
 2127SOL     OW 6515   4.846   3.262   3.092 -0.1206  0.1101  0.4832
 2127SOL    HW1 6516   4.869   3.169   3.089 -1.0274 -0.0893 -1.0857
 2127SOL    HW2 6517   4.859   3.287   3.184 -0.8145 -1.8059  1.1484
 2128SOL     OW 6518   3.663   4.478   1.552  0.1125 -0.5295 -0.5398
 2128SOL    HW1 6519   3.707   4.465   1.468  0.3057  2.1235 -0.9405
 2128SOL    HW2 6520   3.715   4.545   1.597 -1.2791 -0.2153  0.6868
 2129SOL     OW 6521   1.898   0.948   3.722  0.4938  0.1084  0.6946
 2129SOL    HW1 6522   1.847   0.871   3.698  1.6808 -0.7915  0.9470
 2129SOL    HW2 6523   1.880   1.011   3.653  0.6526 -0.9408 -0.3403
 2130SOL     OW 6524   2.641   0.448   2.844 -0.4663 -0.2096 -0.2314
 2130SOL    HW1 6525   2.595   0.451   2.761  2.2914 -1.1976 -1.9113
 2130SOL    HW2 6526   2.692   0.367   2.842  0.8164  0.4525  1.7643
 2131SOL     OW 6527   0.964   0.820   2.076 -0.1043 -0.0220  0.3977
 2131SOL    HW1 6528   0.922   0.836   1.991  0.5030  0.9306  0.2563
 2131SOL    HW2 6529   1.054   0.853   2.065  0.8840 -2.4430  0.5327
 2132SOL     OW 6530   1.532   1.761   1.631 -0.3157 -0.3083 -0.3512
 2132SOL    HW1 6531   1.492   1.730   1.549  0.9483 -0.6931 -0.8503
 2132SOL    HW2 6532   1.572   1.683   1.668  0.1495  0.1019  0.0184
 2133SOL     OW 6533   3.000   4.284   1.416 -0.0904 -0.1130 -0.5167
 2133SOL    HW1 6534   2.915   4.271   1.459 -0.5433  0.5432 -1.1909
 2133SOL    HW2 6535   2.979   4.292   1.323  0.8946 -1.6886 -0.9134
 2134SOL     OW 6536   0.800   4.380   4.186  0.1351 -0.6087 -0.2538
 2134SOL    HW1 6537   0.784   4.458   4.239 -0.1322 -1.1293  0.4425
 2134SOL    HW2 6538   0.777   4.407   4.097  1.5618  0.5865 -0.3029
 2135SOL     OW 6539   1.458   4.922   3.938  0.1175  0.0211  0.1725
 2135SOL    HW1 6540   1.553   4.926   3.951  0.3457  0.7059 -1.4630
 2135SOL    HW2 6541   1.421   4.972   4.011  0.9909 -0.3877  0.9135
 2136SOL     OW 6542   1.913   4.058   2.269  0.3832  0.1474 -0.1946
 2136SOL    HW1 6543   1.893   3.969   2.297  2.6904 -0.4437 -0.2644
 2136SOL    HW2 6544   1.828   4.097   2.250 -0.6586 -2.1117 -0.4199
 2137SOL     OW 6545   3.713   4.301   2.859 -0.1142 -0.1717  1.2426
 2137SOL    HW1 6546   3.784   4.350   2.818 -1.8582  0.1255 -1.6699
 2137SOL    HW2 6547   3.742   4.289   2.950  3.1537  0.7930  0.4645
 2138SOL     OW 6548   2.094   1.741   3.186 -0.0450  0.2661  0.2492
 2138SOL    HW1 6549   2.139   1.826   3.187 -0.1703  0.3256  1.0486
 2138SOL    HW2 6550   2.004   1.761   3.159 -0.5192  0.6189  2.0093
 2139SOL     OW 6551   1.762   2.952   4.797 -0.1022  0.1354 -0.4532
 2139SOL    HW1 6552   1.760   3.004   4.717 -0.6673  1.2615  0.2623
 2139SOL    HW2 6553   1.852   2.919   4.802  1.1966  3.4048  0.4789
 2140SOL     OW 6554   1.668   2.890   3.574  0.3033  1.0423  0.5571
 2140SOL    HW1 6555   1.679   2.836   3.653  1.9357 -0.8731 -0.8916
 2140SOL    HW2 6556   1.595   2.849   3.527  1.0488  0.5340 -0.1789
 2141SOL     OW 6557   3.399   4.093   1.500 -0.1307  0.1727 -0.3217
 2141SOL    HW1 6558   3.403   4.183   1.534 -1.7153  0.1592 -0.0420
 2141SOL    HW2 6559   3.390   4.104   1.405 -0.0545  0.2991 -0.3149
 2142SOL     OW 6560   4.191   2.700   0.735  0.2975 -0.5928 -0.2567
 2142SOL    HW1 6561   4.137   2.681   0.812  0.4347 -0.9375 -0.2450
 2142SOL    HW2 6562   4.274   2.731   0.771 -0.0589  0.4389 -0.2758
 2143SOL     OW 6563   0.288   4.536   0.673  0.6758  0.2235 -0.2999
 2143SOL    HW1 6564   0.373   4.492   0.681  0.6270  0.3784  1.2522
 2143SOL    HW2 6565   0.310   4.628   0.664  0.6750  0.2287 -0.2460
 2144SOL     OW 6566   1.967   2.206   1.259 -0.3923 -0.7860  0.6416
 2144SOL    HW1 6567   2.013   2.136   1.213 -0.7468 -1.2270  0.9488
 2144SOL    HW2 6568   1.955   2.274   1.193 -0.4024 -1.1827  0.2303
 2145SOL     OW 6569   4.825   1.148   3.554 -0.2813 -0.2520  0.9845
 2145SOL    HW1 6570   4.917   1.129   3.537 -0.2768  0.2856  0.3954
 2145SOL    HW2 6571   4.785   1.062   3.567 -0.0140 -0.5977 -0.3626
 2146SOL     OW 6572   1.192   3.960   3.577 -0.7157 -0.5185  0.4663
 2146SOL    HW1 6573   1.110   3.999   3.606  0.2387  0.5003  1.9043
 2146SOL    HW2 6574   1.245   3.955   3.656  1.7522  1.6960 -0.9023
 2147SOL     OW 6575   1.918   1.920   0.231 -0.3210  0.5917  0.3790
 2147SOL    HW1 6576   1.948   2.001   0.190  0.6980 -0.2240 -0.5821
 2147SOL    HW2 6577   1.871   1.874   0.161  2.4895 -1.3841 -0.4038
 2148SOL     OW 6578   0.063   4.188   4.293 -0.2419  0.0437  0.1040
 2148SOL    HW1 6579   0.038   4.096   4.298  0.3165 -0.0822  0.8603
 2148SOL    HW2 6580   0.155   4.189   4.321 -0.2527  0.8323  0.1312
 2149SOL     OW 6581   3.675   0.993   0.897 -0.3108 -0.4600 -0.0866
 2149SOL    HW1 6582   3.670   1.074   0.947  0.0520 -1.2641  1.3028
 2149SOL    HW2 6583   3.613   1.005   0.825 -0.8022  0.7560  0.5207
 2150SOL     OW 6584   1.363   3.280   4.775  0.3112 -0.0823 -0.4555
 2150SOL    HW1 6585   1.429   3.342   4.744 -0.6477  1.1258 -0.1722
 2150SOL    HW2 6586   1.371   3.205   4.716  0.0304  1.2304 -2.2474
 2151SOL     OW 6587   2.468   0.077   0.369 -0.4395  0.5969  0.0418
 2151SOL    HW1 6588   2.547   0.024   0.364 -0.6424  0.3969 -1.9891
 2151SOL    HW2 6589   2.480   0.132   0.446  0.6175 -1.0521  1.1116
 2152SOL     OW 6590   2.436   0.096   2.912  0.1754  0.4747 -0.5515
 2152SOL    HW1 6591   2.393   0.163   2.964  0.8497  2.6085 -2.5627
 2152SOL    HW2 6592   2.369   0.064   2.852 -0.1598 -0.7637  0.4366
 2153SOL     OW 6593   4.379   1.906   3.611 -0.2756 -0.4048 -0.1536
 2153SOL    HW1 6594   4.294   1.894   3.567  0.0992  0.5216 -1.2023
 2153SOL    HW2 6595   4.436   1.938   3.541  0.5382  0.4297  0.8789
 2154SOL     OW 6596   4.076   0.315   1.117 -0.4343  0.4582  0.4659
 2154SOL    HW1 6597   3.999   0.371   1.123 -0.7205 -0.0813  2.8492
 2154SOL    HW2 6598   4.103   0.302   1.208  2.7724  1.0098 -0.2805
 2155SOL     OW 6599   4.802   0.708   0.333 -0.5613 -0.0150  0.5045
 2155SOL    HW1 6600   4.867   0.666   0.277 -0.8482 -0.2880  0.3719
 2155SOL    HW2 6601   4.719   0.694   0.287 -0.5264  1.6765 -0.1303
 2156SOL     OW 6602   3.530   3.664   2.502 -0.3609 -0.2050  0.3139
 2156SOL    HW1 6603   3.564   3.713   2.577 -0.7550 -1.6959  1.5159
 2156SOL    HW2 6604   3.574   3.579   2.507  0.4998  0.0606 -1.8661
 2157SOL     OW 6605   0.053   4.370   1.953  0.3303 -0.2299  0.2328
 2157SOL    HW1 6606   0.018   4.290   1.913 -2.2818  0.9965 -0.1110
 2157SOL    HW2 6607   0.066   4.347   2.045 -1.0362 -0.8989  0.2868
 2158SOL     OW 6608   2.749   1.517   3.675 -0.3249 -0.5886 -0.1246
 2158SOL    HW1 6609   2.775   1.597   3.721  2.1565  0.4503 -2.9974
 2158SOL    HW2 6610   2.774   1.446   3.735 -0.3211  0.7096  1.4764
 2159SOL     OW 6611   4.536   3.353   0.776  0.0282  0.0736 -0.3321
 2159SOL    HW1 6612   4.620   3.319   0.744 -0.1780  0.7644 -1.6962
 2159SOL    HW2 6613   4.491   3.276   0.811  1.6372 -0.1356  1.4470
 2160SOL     OW 6614   1.692   0.184   3.993 -0.5950 -0.2847 -0.3547
 2160SOL    HW1 6615   1.659   0.261   4.039  0.4168 -0.7927  1.3007
 2160SOL    HW2 6616   1.666   0.110   4.047  1.1497 -0.8601 -0.2407
 2161SOL     OW 6617   2.035   3.665   4.387  0.2718 -0.5831  0.6666
 2161SOL    HW1 6618   1.972   3.737   4.388 -0.1330 -0.9308  0.6929
 2161SOL    HW2 6619   2.020   3.620   4.304 -0.6501 -1.6349  1.3712
 2162SOL     OW 6620   1.318   2.025   3.423 -0.1408 -0.4184 -0.4395
 2162SOL    HW1 6621   1.402   2.068   3.438 -0.7522  1.1165 -1.1925
 2162SOL    HW2 6622   1.332   1.976   3.341  0.0695 -0.2854 -0.4864
 2163SOL     OW 6623   1.669   1.153   2.577 -0.3504 -0.0848 -0.5860
 2163SOL    HW1 6624   1.613   1.150   2.499 -0.3699  0.2553 -0.5845
 2163SOL    HW2 6625   1.641   1.231   2.624  0.3706  0.2915 -0.7667
 2164SOL     OW 6626   4.952   3.929   4.267 -0.2770 -0.0731 -0.0798
 2164SOL    HW1 6627   4.951   3.877   4.347  2.0855 -0.3802 -0.1806
 2164SOL    HW2 6628   5.010   3.882   4.208  0.6763  1.8537 -0.7593
 2165SOL     OW 6629   4.159   4.349   3.147 -0.3217 -0.3691  0.8007
 2165SOL    HW1 6630   4.239   4.401   3.142  0.3894 -1.5040 -0.4903
 2165SOL    HW2 6631   4.133   4.337   3.056 -1.6828 -0.4622  1.1794
 2166SOL     OW 6632   3.444   3.118   1.152  0.1177 -0.4227 -0.1221
 2166SOL    HW1 6633   3.438   3.139   1.246 -0.4447  1.1777 -0.4969
 2166SOL    HW2 6634   3.513   3.175   1.119 -0.5552 -0.0489 -0.9211
 2167SOL     OW 6635   1.072   3.249   0.183  1.0675 -0.1400 -0.0926
 2167SOL    HW1 6636   1.089   3.163   0.221  0.8858  0.1237  0.6127
 2167SOL    HW2 6637   0.979   3.265   0.200  0.7416 -0.4239 -1.5183
 2168SOL     OW 6638   3.832   4.686   1.750 -0.2465  0.3479  0.2050
 2168SOL    HW1 6639   3.803   4.597   1.770 -0.6325  0.2565 -0.7132
 2168SOL    HW2 6640   3.926   4.684   1.765 -0.3788  0.0332  1.0498
 2169SOL     OW 6641   2.241   1.851   1.865  0.1092 -0.1980 -0.5859
 2169SOL    HW1 6642   2.323   1.855   1.816 -0.7264 -1.8252 -2.2910
 2169SOL    HW2 6643   2.184   1.798   1.810 -0.9603 -2.1165  2.1550
 2170SOL     OW 6644   3.334   1.709   3.488  0.6645 -0.4430  0.0603
 2170SOL    HW1 6645   3.382   1.788   3.514 -1.7186  0.9025  0.6354
 2170SOL    HW2 6646   3.402   1.643   3.475  2.7552  1.6414 -0.2972
 2171SOL     OW 6647   3.173   2.977   2.109  0.2619  0.1274 -0.1221
 2171SOL    HW1 6648   3.090   2.932   2.117 -0.0569  0.5456 -0.9924
 2171SOL    HW2 6649   3.211   2.946   2.027  0.4423  0.7701 -0.2939
 2172SOL     OW 6650   2.243   0.690   4.118  0.2210 -0.5752 -0.2473
 2172SOL    HW1 6651   2.258   0.596   4.124 -3.5365 -1.3633 -0.8191
 2172SOL    HW2 6652   2.255   0.710   4.025  0.6019 -0.5552 -0.1963
 2173SOL     OW 6653   2.418   3.671   3.692  0.0099  0.6594  0.0604
 2173SOL    HW1 6654   2.376   3.750   3.659 -1.2705 -0.5721 -1.4123
 2173SOL    HW2 6655   2.462   3.633   3.616 -0.6095 -0.7839  0.3958
 2174SOL     OW 6656   4.402   3.546   0.981  0.9378 -0.3509  0.0894
 2174SOL    HW1 6657   4.328   3.579   0.929  1.1616 -0.9820 -0.6568
 2174SOL    HW2 6658   4.466   3.518   0.916  2.6507  1.9014  0.7158
 2175SOL     OW 6659   0.603   4.394   1.778  0.5221 -0.1920 -0.0855
 2175SOL    HW1 6660   0.696   4.406   1.797  0.4344 -0.9032  0.8452
 2175SOL    HW2 6661   0.601   4.334   1.704  0.7934 -1.7623  1.1357
 2176SOL     OW 6662   4.331   2.886   2.070 -0.1112  0.0449 -0.1103
 2176SOL    HW1 6663   4.273   2.961   2.072 -0.4888 -0.2595  1.7896
 2176SOL    HW2 6664   4.336   2.862   1.977 -2.0937  0.7699 -0.4424
 2177SOL     OW 6665   1.624   2.141   0.998 -0.2335  0.0965  0.0016
 2177SOL    HW1 6666   1.652   2.128   1.089 -1.8598  2.3199  0.9111
 2177SOL    HW2 6667   1.704   2.128   0.946  1.0110  0.0013  1.8474
 2178SOL     OW 6668   2.307   0.450   1.153  0.0461 -0.0370  0.4171
 2178SOL    HW1 6669   2.235   0.413   1.205  0.6815  0.6351  1.8571
 2178SOL    HW2 6670   2.306   0.401   1.071  0.2321 -2.5691  1.8285
 2179SOL     OW 6671   4.848   1.589   2.708 -0.1058 -0.4859  0.2100
 2179SOL    HW1 6672   4.859   1.614   2.616 -0.6586  0.0469  0.2776
 2179SOL    HW2 6673   4.925   1.535   2.728 -0.3556 -1.2342 -0.7718
 2180SOL     OW 6674   2.709   3.578   3.260 -0.4197 -0.2739  0.3642
 2180SOL    HW1 6675   2.701   3.665   3.301 -0.4305  0.9098 -1.9853
 2180SOL    HW2 6676   2.794   3.580   3.216 -0.6900 -1.2291 -0.2143
 2181SOL     OW 6677   2.222   0.301   4.434  0.1830  0.4160  0.4263
 2181SOL    HW1 6678   2.130   0.275   4.425  0.1739  0.3530  0.7155
 2181SOL    HW2 6679   2.222   0.366   4.505  0.1308  1.5477 -0.5653
 2182SOL     OW 6680   2.965   0.860   1.753 -0.0197  0.1633 -0.1353
 2182SOL    HW1 6681   3.033   0.924   1.730  0.4892 -0.7488 -1.2195
 2182SOL    HW2 6682   2.999   0.816   1.831  0.4866 -0.0780 -0.4915
 2183SOL     OW 6683   3.570   3.050   2.841 -0.3824 -0.1941  0.0194
 2183SOL    HW1 6684   3.609   3.093   2.765  2.2454 -1.3546  0.5984
 2183SOL    HW2 6685   3.482   3.026   2.812  1.1110 -2.2976 -3.4557
 2184SOL     OW 6686   3.697   1.065   3.349 -0.7900  0.0300 -0.4340
 2184SOL    HW1 6687   3.641   1.121   3.295 -1.4345  0.6233  0.8089
 2184SOL    HW2 6688   3.636   1.019   3.406 -0.0896 -0.2782  0.0752
 2185SOL     OW 6689   4.907   1.931   2.776  0.3329 -0.7702  0.5077
 2185SOL    HW1 6690   4.964   1.966   2.709  0.4262  0.7425  1.3287
 2185SOL    HW2 6691   4.819   1.941   2.741  0.4525 -1.2626  0.0590
 2186SOL     OW 6692   1.545   0.263   4.474  0.1126  0.1009 -0.1479
 2186SOL    HW1 6693   1.597   0.203   4.422  1.1252 -0.6159  1.6226
 2186SOL    HW2 6694   1.608   0.327   4.508 -0.5656  0.6931  0.0248
 2187SOL     OW 6695   2.102   0.870   0.941 -0.3853  1.0608  0.1893
 2187SOL    HW1 6696   2.071   0.879   1.031 -0.7773  0.9328  0.0716
 2187SOL    HW2 6697   2.061   0.942   0.894 -0.4898  0.9025  0.0358
 2188SOL     OW 6698   1.308   0.995   4.728  0.1540 -0.6081 -0.4319
 2188SOL    HW1 6699   1.274   0.937   4.796  1.5164  0.1539  0.9511
 2188SOL    HW2 6700   1.249   1.071   4.730 -0.1744 -0.8539 -0.5549
 2189SOL     OW 6701   0.822   3.222   1.517 -0.1952  0.1542 -0.4015
 2189SOL    HW1 6702   0.906   3.179   1.497 -0.6938 -0.3544 -1.4825
 2189SOL    HW2 6703   0.791   3.254   1.433 -0.4005  1.6373  0.2192
 2190SOL     OW 6704   4.093   3.582   3.869 -0.1434 -0.0934 -0.0427
 2190SOL    HW1 6705   4.166   3.644   3.879 -1.1138  0.9447  1.0793
 2190SOL    HW2 6706   4.100   3.525   3.945  0.4330 -1.0364 -0.7931
 2191SOL     OW 6707   4.536   4.127   0.065 -0.0157 -0.7771  0.3610
 2191SOL    HW1 6708   4.561   4.067   0.135  1.3826  0.6658  1.1496
 2191SOL    HW2 6709   4.496   4.202   0.109  0.7966  0.1149 -0.3706
 2192SOL     OW 6710   2.513   2.482   2.376 -0.0791 -0.4860  0.1573
 2192SOL    HW1 6711   2.500   2.525   2.460  0.1489  0.9350 -0.4985
 2192SOL    HW2 6712   2.592   2.429   2.387  0.2533  0.1124  0.6904
 2193SOL     OW 6713   3.205   3.720   1.600  0.4495  0.1868 -0.6619
 2193SOL    HW1 6714   3.152   3.725   1.521 -3.1485  0.5549  1.5490
 2193SOL    HW2 6715   3.180   3.638   1.642  3.7931 -1.0484 -0.7105
 2194SOL     OW 6716   3.780   1.256   2.687  0.2723  0.3661  0.1208
 2194SOL    HW1 6717   3.833   1.180   2.662 -1.5513 -0.8407 -0.2458
 2194SOL    HW2 6718   3.708   1.257   2.624 -0.9930  1.0109  1.5164
 2195SOL     OW 6719   0.438   4.607   0.254  0.3195 -0.2672  0.1218
 2195SOL    HW1 6720   0.443   4.678   0.318 -1.0500 -0.2894  0.2712
 2195SOL    HW2 6721   0.345   4.595   0.238  0.6479  0.1939 -2.4281
 2196SOL     OW 6722   3.747   1.961   0.493  0.5103 -0.7150 -0.0953
 2196SOL    HW1 6723   3.751   1.892   0.560  0.4753 -1.3759 -0.7644
 2196SOL    HW2 6724   3.790   1.924   0.417  0.0551 -0.1716 -0.6267
 2197SOL     OW 6725   4.551   0.728   2.559 -0.6161 -0.8195  0.4701
 2197SOL    HW1 6726   4.557   0.730   2.654  3.2787 -0.5111  0.3705
 2197SOL    HW2 6727   4.583   0.641   2.534  0.1799 -0.2412 -0.5955
 2198SOL     OW 6728   0.487   3.259   2.554  0.0113 -0.4812 -0.7091
 2198SOL    HW1 6729   0.502   3.353   2.567  0.9062 -0.7310  0.0925
 2198SOL    HW2 6730   0.434   3.233   2.629 -0.3890 -0.5919 -1.0257
 2199SOL     OW 6731   0.475   3.106   0.276 -0.2920 -0.0307 -0.1122
 2199SOL    HW1 6732   0.518   3.049   0.213 -1.3107 -1.7366  0.6719
 2199SOL    HW2 6733   0.401   3.144   0.227  0.2162  0.4111 -0.5517
 2200SOL     OW 6734   2.960   4.682   3.787  0.3177 -0.0717 -0.3934
 2200SOL    HW1 6735   3.050   4.673   3.816  0.2292  1.1724  0.3752
 2200SOL    HW2 6736   2.966   4.721   3.700  0.5353  0.5871 -0.0946
 2201SOL     OW 6737   1.906   1.431   0.764  0.0497 -0.4909 -0.2628
 2201SOL    HW1 6738   1.983   1.381   0.793 -0.1992 -2.3378 -2.5184
 2201SOL    HW2 6739   1.928   1.458   0.675 -1.8353 -0.9675 -0.9109
 2202SOL     OW 6740   1.538   1.191   1.350  0.3731  0.4930  0.2189
 2202SOL    HW1 6741   1.557   1.118   1.291 -1.8030 -2.0767  2.4258
 2202SOL    HW2 6742   1.611   1.251   1.338  2.3790 -2.0890 -1.6568
 2203SOL     OW 6743   3.896   2.750   0.096  0.1957  0.1456 -0.2600
 2203SOL    HW1 6744   3.915   2.666   0.138  1.5927  0.7954  0.4821
 2203SOL    HW2 6745   3.840   2.796   0.158 -1.5483 -0.6481 -1.1775
 2204SOL     OW 6746   0.520   2.479   1.635 -0.4977 -0.1108 -0.3125
 2204SOL    HW1 6747   0.566   2.463   1.553  3.8991  2.0972  1.3964
 2204SOL    HW2 6748   0.508   2.573   1.639 -2.6392 -0.3579  0.7054
 2205SOL     OW 6749   0.374   1.095   4.637 -0.2307  0.0906  0.0045
 2205SOL    HW1 6750   0.351   1.066   4.549  1.2708 -1.4041  0.0702
 2205SOL    HW2 6751   0.445   1.158   4.624 -0.7714  0.7406  0.1088
 2206SOL     OW 6752   0.825   4.152   1.657 -0.0970 -0.4803  0.6679
 2206SOL    HW1 6753   0.737   4.120   1.638 -0.1893 -0.4127  0.9786
 2206SOL    HW2 6754   0.861   4.090   1.720  0.2580 -0.7761  0.1829
 2207SOL     OW 6755   3.163   0.001   1.211 -0.1903 -0.4899 -0.8995
 2207SOL    HW1 6756   3.256  -0.019   1.226  0.0167  0.1503 -1.2977
 2207SOL    HW2 6757   3.147   0.080   1.263 -1.2648 -2.1555  1.4860
 2208SOL     OW 6758   4.739   2.539   1.505 -0.3672  0.1272  0.2891
 2208SOL    HW1 6759   4.668   2.552   1.568  0.9740  2.5357  1.4578
 2208SOL    HW2 6760   4.705   2.570   1.422 -1.0796  0.0371  0.5428
 2209SOL     OW 6761   1.355   0.387   2.496 -0.2232  0.4391 -0.2445
 2209SOL    HW1 6762   1.300   0.427   2.563  0.6433  1.7295 -0.2628
 2209SOL    HW2 6763   1.440   0.375   2.539 -0.1730 -0.4120 -0.5659
 2210SOL     OW 6764   4.726   4.406   0.223 -0.3239  0.1568 -0.3035
 2210SOL    HW1 6765   4.717   4.349   0.147 -2.0275  0.5193 -0.4088
 2210SOL    HW2 6766   4.688   4.490   0.196  0.6516  0.8479  0.3808
 2211SOL     OW 6767   3.915   0.457   3.561 -0.0462  0.0501 -0.6239
 2211SOL    HW1 6768   3.981   0.426   3.624  2.2328 -0.6329 -3.1373
 2211SOL    HW2 6769   3.877   0.377   3.525 -1.3238  0.4314 -0.1715
 2212SOL     OW 6770   4.803   2.721   1.970 -0.1059  0.1331 -0.3103
 2212SOL    HW1 6771   4.881   2.728   2.026  1.4139 -1.2549 -2.1315
 2212SOL    HW2 6772   4.780   2.629   1.972 -1.3409  0.4334 -0.3026
 2213SOL     OW 6773   3.623   0.513   2.798  0.0825 -0.5212 -0.9645
 2213SOL    HW1 6774   3.578   0.429   2.803 -1.4477  0.3584  1.0806
 2213SOL    HW2 6775   3.711   0.496   2.832 -0.6286 -1.0591  0.6819
 2214SOL     OW 6776   3.459   4.363   4.463 -0.3408  0.3845  0.3201
 2214SOL    HW1 6777   3.546   4.323   4.467 -0.2258  0.2627 -1.8736
 2214SOL    HW2 6778   3.400   4.297   4.500  0.4093  0.2246  1.2704
 2215SOL     OW 6779   0.744   4.025   3.072  0.5303  0.4834  0.3699
 2215SOL    HW1 6780   0.786   3.992   2.992 -0.6648  0.0879 -0.1160
 2215SOL    HW2 6781   0.802   3.999   3.143  1.2365  0.1912 -0.3060
 2216SOL     OW 6782   2.367   0.941   3.956  0.5110  0.7002 -0.3168
 2216SOL    HW1 6783   2.286   0.991   3.944 -2.4325 -3.1897  0.8940
 2216SOL    HW2 6784   2.395   0.962   4.045 -0.9501  0.0004  0.3503
 2217SOL     OW 6785   3.555   2.998   0.118 -0.0816 -1.2001  0.3728
 2217SOL    HW1 6786   3.466   2.966   0.132 -0.3700 -0.0684  1.3404
 2217SOL    HW2 6787   3.546   3.064   0.049 -0.5522  0.9563  2.3503
 2218SOL     OW 6788   0.649   3.717   0.786  0.2072 -0.0130 -1.0048
 2218SOL    HW1 6789   0.656   3.812   0.779  1.5314  0.0244  0.2797
 2218SOL    HW2 6790   0.556   3.700   0.798  0.1663  1.3475  1.1117
 2219SOL     OW 6791   3.439   1.160   3.874 -0.9062  0.3723 -0.2217
 2219SOL    HW1 6792   3.506   1.161   3.805  2.2069  1.1998  2.5630
 2219SOL    HW2 6793   3.412   1.069   3.879  1.0302 -0.2817 -0.6321
 2220SOL     OW 6794   3.938   1.054   4.226  0.0894 -0.4899  0.0955
 2220SOL    HW1 6795   3.971   1.072   4.139 -2.5468  0.7100 -0.7771
 2220SOL    HW2 6796   3.863   0.996   4.212 -0.4883 -0.1499  1.5129
 2221SOL     OW 6797   3.574   2.492   1.691 -0.3671 -0.1957 -0.2685
 2221SOL    HW1 6798   3.574   2.529   1.602 -1.2443 -0.4704 -0.3937
 2221SOL    HW2 6799   3.627   2.413   1.683 -1.8132 -1.1570 -0.9872
 2222SOL     OW 6800   0.324   3.520   0.367  0.4043  0.1757 -0.4559
 2222SOL    HW1 6801   0.321   3.524   0.462  0.3403 -1.1612 -0.3867
 2222SOL    HW2 6802   0.234   3.503   0.340  0.6642 -0.9284 -0.6600
 2223SOL     OW 6803   1.204   4.503   3.553 -0.1898  0.5830  0.2730
 2223SOL    HW1 6804   1.213   4.411   3.574  2.6874  0.6950 -0.1297
 2223SOL    HW2 6805   1.161   4.505   3.467  1.1533 -0.4811 -0.4508
 2224SOL     OW 6806   0.532   0.656   4.743 -0.6565 -1.1408 -1.0378
 2224SOL    HW1 6807   0.541   0.563   4.764 -0.6724 -1.1907 -1.2492
 2224SOL    HW2 6808   0.513   0.698   4.827  2.4490 -0.8850 -0.3679
 2225SOL     OW 6809   2.495   2.959   0.306 -0.2425 -0.7959  1.0456
 2225SOL    HW1 6810   2.533   3.012   0.376 -1.7276  1.1852  0.4722
 2225SOL    HW2 6811   2.543   2.986   0.228 -0.1453 -1.2516  0.9501
 2226SOL     OW 6812   2.713   0.303   0.422 -0.2020 -0.2492 -0.0649
 2226SOL    HW1 6813   2.636   0.295   0.478 -0.4648 -2.6336 -0.6523
 2226SOL    HW2 6814   2.768   0.228   0.445 -0.3908 -1.4283 -2.9985
 2227SOL     OW 6815   0.390   2.529   2.597 -0.1829 -0.1127 -0.0887
 2227SOL    HW1 6816   0.414   2.436   2.593  4.6707  0.8334  0.0748
 2227SOL    HW2 6817   0.363   2.542   2.688  1.4635 -1.0306  0.5928
 2228SOL     OW 6818   0.140   1.944   3.845 -0.0482 -0.2631 -0.0943
 2228SOL    HW1 6819   0.053   1.929   3.807 -1.2811  1.2550  1.8889
 2228SOL    HW2 6820   0.153   1.871   3.905 -0.9955  0.6079  1.2274
 2229SOL     OW 6821   1.270   2.895   4.423  0.1826  0.0191 -0.3175
 2229SOL    HW1 6822   1.216   2.969   4.451 -1.4886 -1.3348  0.2911
 2229SOL    HW2 6823   1.357   2.931   4.410 -0.8222  2.2846 -1.1451
 2230SOL     OW 6824   2.281   0.797   0.492 -0.0091 -0.1664 -0.2789
 2230SOL    HW1 6825   2.250   0.839   0.412  3.2663  2.1738 -0.5158
 2230SOL    HW2 6826   2.275   0.703   0.474  0.4068  0.2733 -3.2084
 2231SOL     OW 6827   4.149   0.399   0.047 -0.1217 -0.6401 -0.4023
 2231SOL    HW1 6828   4.129   0.326  -0.012  2.7165 -1.0990 -0.9363
 2231SOL    HW2 6829   4.194   0.463  -0.009 -1.2203  0.8667  0.3873
 2232SOL     OW 6830   0.466   0.828   2.100  0.0179 -0.2135 -0.0794
 2232SOL    HW1 6831   0.391   0.874   2.138  0.4982 -0.4876  1.2805
 2232SOL    HW2 6832   0.429   0.749   2.061 -0.2388 -1.3242  2.2698
 2233SOL     OW 6833   0.510   2.118   1.821 -0.2646 -0.6339  0.7641
 2233SOL    HW1 6834   0.437   2.082   1.872 -0.5119 -0.8383  0.2688
 2233SOL    HW2 6835   0.512   2.066   1.741 -0.1832 -0.0027  0.3446
 2234SOL     OW 6836   2.587   2.141   3.385 -0.0491  0.5421  0.3793
 2234SOL    HW1 6837   2.642   2.113   3.312 -2.5011  0.5794 -1.6265
 2234SOL    HW2 6838   2.617   2.229   3.406 -0.6956  1.4552 -2.1924
 2235SOL     OW 6839   2.023   4.468   4.766  0.5888 -0.3815  0.1195
 2235SOL    HW1 6840   1.947   4.433   4.720 -0.4292  0.5359  1.0528
 2235SOL    HW2 6841   2.022   4.562   4.747 -0.2261  0.1427  2.4607
 2236SOL     OW 6842   0.145   1.975   4.720 -0.0185  0.0028 -0.4797
 2236SOL    HW1 6843   0.188   1.988   4.805  1.4328  0.8532 -1.3017
 2236SOL    HW2 6844   0.057   1.944   4.742  1.2020 -2.6289  1.2904
 2237SOL     OW 6845   0.941   2.939   2.553 -0.5600 -0.1550  0.0141
 2237SOL    HW1 6846   0.899   2.855   2.537 -0.9373  0.0064  0.1489
 2237SOL    HW2 6847   1.031   2.917   2.577 -0.8281 -0.5507  0.6650
 2238SOL     OW 6848   3.592   2.824   4.018 -0.7593 -0.2729  0.2520
 2238SOL    HW1 6849   3.651   2.755   3.988 -0.4081 -0.7688  1.9684
 2238SOL    HW2 6850   3.631   2.905   3.985 -0.4171 -0.7762 -0.6101
 2239SOL     OW 6851   1.881   2.795   2.259 -0.4976 -0.5918  0.3967
 2239SOL    HW1 6852   1.944   2.724   2.272 -1.0834 -1.4911 -1.3345
 2239SOL    HW2 6853   1.800   2.763   2.300 -0.0278  0.3500  2.1719
 2240SOL     OW 6854   0.873   4.187   2.672  0.8206  0.0860 -0.9303
 2240SOL    HW1 6855   0.843   4.102   2.704  0.7892  0.5564  0.3510
 2240SOL    HW2 6856   0.811   4.210   2.602 -0.2424 -0.1505 -0.0824
 2241SOL     OW 6857   2.767   4.446   4.279  0.3147 -0.4686 -0.0543
 2241SOL    HW1 6858   2.843   4.468   4.225 -1.4929  2.4400 -1.6932
 2241SOL    HW2 6859   2.788   4.480   4.366  1.5576 -1.3006 -0.0063
 2242SOL     OW 6860   3.341   2.127   0.579 -0.3193  1.1853  0.2780
 2242SOL    HW1 6861   3.245   2.134   0.583 -0.8173 -2.6207 -1.3804
 2242SOL    HW2 6862   3.363   2.155   0.490 -0.2512 -0.3293 -0.2045
 2243SOL     OW 6863   0.522   1.825   3.294  0.4777 -0.1257 -0.5808
 2243SOL    HW1 6864   0.530   1.919   3.306 -2.2081  0.0214  0.7529
 2243SOL    HW2 6865   0.612   1.792   3.302  1.1456  2.0127  2.3350
 2244SOL     OW 6866   2.460   3.778   1.027 -0.9464  0.3463 -0.4162
 2244SOL    HW1 6867   2.395   3.708   1.028  0.6942 -1.2815  1.8831
 2244SOL    HW2 6868   2.544   3.734   1.035  0.3913  2.4632 -1.6712
 2245SOL     OW 6869   0.521   2.441   0.776  0.3759 -0.1321  0.2525
 2245SOL    HW1 6870   0.517   2.383   0.852 -0.3820  0.3327  0.5745
 2245SOL    HW2 6871   0.496   2.527   0.809  0.2111  0.1138 -0.4876
 2246SOL     OW 6872   2.080   3.407   0.085  0.5506 -0.4855 -0.6102
 2246SOL    HW1 6873   2.170   3.379   0.100 -0.2322 -2.8007  0.2286
 2246SOL    HW2 6874   2.053   3.361   0.006 -0.6180 -1.8356  0.5153
 2247SOL     OW 6875   0.733   2.627   1.860 -0.1043 -0.8369  0.4563
 2247SOL    HW1 6876   0.824   2.602   1.844  0.3027 -0.5164  2.1250
 2247SOL    HW2 6877   0.683   2.548   1.841  0.6272 -1.3390  0.5733
 2248SOL     OW 6878   3.319   0.135   4.540 -0.1401  0.3577  0.5451
 2248SOL    HW1 6879   3.306   0.049   4.580  0.2661 -0.0766 -0.2449
 2248SOL    HW2 6880   3.388   0.176   4.593  0.9594 -0.5285 -0.1648
 2249SOL     OW 6881   4.103   2.361   2.649 -0.1527  0.6142  0.1008
 2249SOL    HW1 6882   4.073   2.283   2.603 -2.0630 -0.1563  2.4246
 2249SOL    HW2 6883   4.161   2.328   2.718  2.3224  1.6950 -1.3098
 2250SOL     OW 6884   4.184   0.810   2.669  0.1212 -0.1773  0.3193
 2250SOL    HW1 6885   4.249   0.788   2.736  1.1579 -0.0174 -0.5960
 2250SOL    HW2 6886   4.232   0.866   2.608 -0.1134 -2.0282 -1.7164
 2251SOL     OW 6887   2.546   4.958   4.074 -0.8349  0.5180 -0.0786
 2251SOL    HW1 6888   2.551   5.031   4.135  0.4900 -0.4143  0.9751
 2251SOL    HW2 6889   2.619   4.972   4.013  1.1849 -1.2393  1.7374
 2252SOL     OW 6890   2.924   3.850   0.822 -0.0103  0.0861 -0.0627
 2252SOL    HW1 6891   2.860   3.851   0.894  0.9338  1.1793  0.7913
 2252SOL    HW2 6892   2.948   3.757   0.813 -2.2680 -0.4826 -0.9544
 2253SOL     OW 6893   2.209   4.300   3.567 -0.3033  0.3442 -0.5447
 2253SOL    HW1 6894   2.141   4.239   3.540 -0.1991  0.7921 -1.9058
 2253SOL    HW2 6895   2.162   4.370   3.612 -0.5642 -0.0782 -0.1497
 2254SOL     OW 6896   0.687   0.387   2.056  0.4339  0.3461  0.4754
 2254SOL    HW1 6897   0.639   0.464   2.028 -2.5616 -1.3681  0.5188
 2254SOL    HW2 6898   0.704   0.402   2.150 -0.6860  0.6737  0.6318
 2255SOL     OW 6899   3.942   4.243   3.261 -0.2908 -0.0337  0.2855
 2255SOL    HW1 6900   3.965   4.266   3.351  1.5169 -0.2368 -0.0898
 2255SOL    HW2 6901   4.018   4.271   3.209 -0.2225 -2.1355 -0.8435
 2256SOL     OW 6902   0.373   1.080   0.270 -0.1060  0.3631 -0.0138
 2256SOL    HW1 6903   0.317   1.107   0.343 -1.3112 -0.1389 -0.7166
 2256SOL    HW2 6904   0.368   0.984   0.270  0.5893  0.3200 -0.2258
 2257SOL     OW 6905   4.618   3.948   2.670  0.6360  0.7153 -0.5256
 2257SOL    HW1 6906   4.524   3.963   2.669  0.8214  2.3932  0.8619
 2257SOL    HW2 6907   4.639   3.917   2.583 -1.2517 -0.0729 -0.7391
 2258SOL     OW 6908   3.004   3.671   3.776 -0.2351  0.2008  0.3330
 2258SOL    HW1 6909   3.079   3.679   3.833  0.0405  2.8403 -0.2751
 2258SOL    HW2 6910   2.932   3.712   3.824 -0.8458 -0.6479  0.1676
 2259SOL     OW 6911   4.855   1.864   0.083  0.2379  0.3013 -0.1870
 2259SOL    HW1 6912   4.850   1.947   0.132  0.9096 -0.1374  0.6583
 2259SOL    HW2 6913   4.769   1.825   0.094  0.7435 -0.4159  1.8600
 2260SOL     OW 6914   3.599   4.608   4.129  1.0645  0.1133 -0.3390
 2260SOL    HW1 6915   3.665   4.659   4.176  0.7937  0.6118 -0.4831
 2260SOL    HW2 6916   3.533   4.586   4.195  0.6790  0.8213 -0.4710
 2261SOL     OW 6917   4.525   2.704   3.454  0.0108  0.5013 -0.2146
 2261SOL    HW1 6918   4.524   2.610   3.440 -0.7044  0.6660 -1.4363
 2261SOL    HW2 6919   4.557   2.741   3.371 -1.6808  1.4044 -0.5190
 2262SOL     OW 6920   4.135   2.258   0.537  0.2029 -0.2870  0.4715
 2262SOL    HW1 6921   4.202   2.324   0.519 -0.2023  0.2025  0.6971
 2262SOL    HW2 6922   4.060   2.309   0.568 -0.6658 -0.7175 -0.8457
 2263SOL     OW 6923   2.312   4.195   1.519 -0.1367  0.3708 -0.3294
 2263SOL    HW1 6924   2.279   4.255   1.452 -0.1769  0.8220  0.0875
 2263SOL    HW2 6925   2.272   4.226   1.601  1.7836  1.3464  0.3106
 2264SOL     OW 6926   1.283   0.615   4.100 -0.0350 -0.5083 -0.2629
 2264SOL    HW1 6927   1.339   0.654   4.168  0.3789 -1.7549  0.1490
 2264SOL    HW2 6928   1.316   0.652   4.018 -0.5713  1.0556  0.1792
 2265SOL     OW 6929   1.149   3.119   0.558  0.3266  0.1156  0.4152
 2265SOL    HW1 6930   1.165   3.146   0.648 -1.6314  0.7270  0.6441
 2265SOL    HW2 6931   1.206   3.176   0.506  0.8947  0.3102  1.2254
 2266SOL     OW 6932   1.871   3.533   2.331  0.4327 -0.7495 -0.3107
 2266SOL    HW1 6933   1.801   3.489   2.380  0.7939  0.6117  1.5193
 2266SOL    HW2 6934   1.952   3.502   2.372  0.8102 -0.6217 -0.9596
 2267SOL     OW 6935   3.260   3.989   4.259  0.4023 -0.0877 -1.2346
 2267SOL    HW1 6936   3.314   3.910   4.265  0.2114 -0.1950 -0.8847
 2267SOL    HW2 6937   3.252   4.019   4.350 -0.4035 -0.2616 -1.2476
 2268SOL     OW 6938   1.209   0.184   2.342  0.4054  0.0072 -0.1625
 2268SOL    HW1 6939   1.188   0.187   2.248 -1.3061  2.8785  0.1942
 2268SOL    HW2 6940   1.239   0.273   2.362  2.2760 -0.9726  1.7450
 2269SOL     OW 6941   4.794   4.992   4.162  0.1565 -0.2186 -0.1435
 2269SOL    HW1 6942   4.801   4.901   4.190 -0.2974 -0.7871 -1.8014
 2269SOL    HW2 6943   4.734   5.031   4.227 -1.3438 -1.6438 -0.5906
 2270SOL     OW 6944   2.306   3.216   3.838 -0.8367 -0.6788  0.3203
 2270SOL    HW1 6945   2.318   3.311   3.826 -2.6899 -0.3543  0.8180
 2270SOL    HW2 6946   2.252   3.190   3.763  2.1911 -2.0114 -1.6163
 2271SOL     OW 6947   4.613   0.228   3.712 -0.3941  0.2298  0.3128
 2271SOL    HW1 6948   4.624   0.250   3.619 -1.9317  0.3871  0.1433
 2271SOL    HW2 6949   4.693   0.260   3.753 -0.2713  1.4064 -0.7559
 2272SOL     OW 6950   2.584   3.208   1.366  0.5151  0.2795 -0.1673
 2272SOL    HW1 6951   2.608   3.252   1.448 -0.5328  1.0052 -0.2280
 2272SOL    HW2 6952   2.591   3.115   1.386 -1.6911  0.3653  1.4176
 2273SOL     OW 6953   0.272   2.870   4.338 -0.4454 -0.3562 -0.1977
 2273SOL    HW1 6954   0.185   2.904   4.358 -0.3539 -0.0352 -0.3270
 2273SOL    HW2 6955   0.271   2.856   4.243 -0.3362 -0.2868 -0.2097
 2274SOL     OW 6956   0.504   1.921   2.730 -0.3621 -0.2278  0.1638
 2274SOL    HW1 6957   0.482   1.929   2.823 -0.3799 -0.2513  0.1616
 2274SOL    HW2 6958   0.578   1.982   2.718 -0.3154 -0.2752  0.2083
 2275SOL     OW 6959   0.392   0.692   3.493 -0.3460  0.2169 -0.0275
 2275SOL    HW1 6960   0.453   0.766   3.490  1.2767 -1.0623  0.2555
 2275SOL    HW2 6961   0.311   0.727   3.456 -0.0182  2.4729  1.1551
 2276SOL     OW 6962   1.026   1.061   2.780  0.0848  0.1318  0.6402
 2276SOL    HW1 6963   1.031   1.053   2.684 -1.1326  0.5149  0.5279
 2276SOL    HW2 6964   0.939   1.027   2.802  1.5146 -3.1020  1.9828
 2277SOL     OW 6965   4.197   3.920   2.104  0.2525 -0.2295  0.0216
 2277SOL    HW1 6966   4.259   3.848   2.091 -0.1287 -0.4059 -0.8706
 2277SOL    HW2 6967   4.116   3.891   2.062 -0.7314 -0.3602  1.8957
 2278SOL     OW 6968   4.980   2.345   2.726 -0.3481  0.1067 -0.6261
 2278SOL    HW1 6969   5.015   2.259   2.703  0.1928  0.5221 -1.4141
 2278SOL    HW2 6970   4.946   2.380   2.643 -0.6392  0.6119 -0.2974
 2279SOL     OW 6971   2.384   3.023   2.484 -0.1609 -0.8456  0.0208
 2279SOL    HW1 6972   2.306   3.048   2.534  0.3128  1.1199 -0.1600
 2279SOL    HW2 6973   2.353   3.014   2.394 -0.5000 -1.8305  0.2207
 2280SOL     OW 6974   4.027   0.070   0.132  0.5962 -0.2081  0.1188
 2280SOL    HW1 6975   4.052   0.095   0.043 -2.1605  1.6523 -0.2881
 2280SOL    HW2 6976   4.080   0.126   0.189  0.1706  0.8592 -0.5117
 2281SOL     OW 6977   1.651   2.038   2.636 -0.4184  0.3928 -0.3328
 2281SOL    HW1 6978   1.744   2.022   2.619 -0.3096  0.8358 -0.1966
 2281SOL    HW2 6979   1.624   1.968   2.695  0.3430  1.3343  1.2186
 2282SOL     OW 6980   2.436   3.830   3.109  0.4745  0.0291  0.1261
 2282SOL    HW1 6981   2.521   3.866   3.134  0.8675 -1.0701  0.4090
 2282SOL    HW2 6982   2.394   3.808   3.191  0.6052 -0.9657 -0.0634
 2283SOL     OW 6983   0.088   0.502   0.092 -1.1836  0.2527  0.0818
 2283SOL    HW1 6984   0.047   0.458   0.018 -0.6988  0.7167 -0.4692
 2283SOL    HW2 6985   0.178   0.469   0.092 -0.3374  2.3736 -1.3054
 2284SOL     OW 6986   4.917   2.335   4.622 -0.0427  0.3717 -0.0035
 2284SOL    HW1 6987   4.989   2.286   4.662 -1.1578 -0.4144  1.1449
 2284SOL    HW2 6988   4.847   2.271   4.614 -0.6196  1.1143 -1.1175
 2285SOL     OW 6989   3.524   0.158   3.108  0.3600 -0.1390  0.0879
 2285SOL    HW1 6990   3.538   0.138   3.200  3.0495  1.3980  0.1306
 2285SOL    HW2 6991   3.581   0.097   3.061  3.3138  2.5155 -0.1307
 2286SOL     OW 6992   4.475   1.379   1.596  0.0563  0.1522 -0.2442
 2286SOL    HW1 6993   4.387   1.414   1.607 -0.4071 -0.9396 -0.4101
 2286SOL    HW2 6994   4.483   1.362   1.502  0.7528  1.0103 -0.3583
 2287SOL     OW 6995   0.997   1.745   2.365 -0.1679 -0.0531 -0.0068
 2287SOL    HW1 6996   0.930   1.804   2.402 -0.4346  0.3800 -1.1381
 2287SOL    HW2 6997   0.957   1.658   2.370 -0.4103  0.0697  0.2405
 2288SOL     OW 6998   3.899   4.597   2.066  0.0763 -0.0711 -0.0009
 2288SOL    HW1 6999   3.973   4.565   2.117 -1.7131 -0.3158  2.6060
 2288SOL    HW2 7000   3.874   4.524   2.010  1.9114  0.1114 -1.1171
 2289SOL     OW 7001   0.029   1.196   4.603 -0.2246  0.8573 -0.4451
 2289SOL    HW1 7002   0.044   1.125   4.666 -1.5755  0.1852 -0.8238
 2289SOL    HW2 7003   0.042   1.276   4.653  2.5383  0.4024 -0.2980
 2290SOL     OW 7004   3.101   3.770   4.406  0.1592  0.4772  0.1673
 2290SOL    HW1 7005   3.178   3.807   4.449  1.0797 -1.8330  0.6756
 2290SOL    HW2 7006   3.030   3.782   4.470  0.3371  1.6445  0.1566
 2291SOL     OW 7007   1.112   1.847   4.699 -0.3238  0.1715  0.0468
 2291SOL    HW1 7008   1.186   1.868   4.757  1.0424  0.3434 -1.6804
 2291SOL    HW2 7009   1.069   1.773   4.742  2.1924 -1.4130  0.0613
 2292SOL     OW 7010   3.007   4.426   3.884  0.1813  0.5679  0.1629
 2292SOL    HW1 7011   2.945   4.492   3.854  0.5544  0.0513 -1.8441
 2292SOL    HW2 7012   2.968   4.394   3.966 -0.9839  1.8967  0.1717
 2293SOL     OW 7013   1.612   3.949   3.042 -0.5987 -0.0094 -0.0798
 2293SOL    HW1 7014   1.683   3.945   3.105 -0.3307  1.1503 -0.2728
 2293SOL    HW2 7015   1.572   3.862   3.044 -0.5151 -0.0364  1.5848
 2294SOL     OW 7016   1.361   0.429   0.408 -0.7288  0.2966 -0.1560
 2294SOL    HW1 7017   1.385   0.439   0.500  0.9898 -2.8954 -0.1327
 2294SOL    HW2 7018   1.424   0.484   0.361 -1.8842  2.2873  0.4791
 2295SOL     OW 7019   0.096   1.635   3.916 -0.0337 -0.5304  0.2929
 2295SOL    HW1 7020   0.101   1.547   3.953 -1.4312 -1.0855 -0.7655
 2295SOL    HW2 7021   0.176   1.643   3.863  1.4619 -0.1067  2.4620
 2296SOL     OW 7022   3.115   4.998   1.874 -0.3936 -0.1430  0.2864
 2296SOL    HW1 7023   3.075   4.911   1.882 -1.2680  0.0910 -1.1658
 2296SOL    HW2 7024   3.188   4.996   1.936 -2.3216 -0.7674  2.7385
 2297SOL     OW 7025   0.108   4.405   0.862 -0.4387 -0.7150  0.6435
 2297SOL    HW1 7026   0.155   4.466   0.806 -1.8382  0.6086  0.8199
 2297SOL    HW2 7027   0.176   4.363   0.915  0.5269  2.4656  2.2318
 2298SOL     OW 7028   0.202   3.045   3.033  0.0161 -0.1897 -0.2102
 2298SOL    HW1 7029   0.120   2.997   3.020  0.4895 -1.1173  0.1436
 2298SOL    HW2 7030   0.268   2.977   3.047  1.2252  0.4387 -2.3864
 2299SOL     OW 7031   3.755   4.894   0.854 -0.6734 -0.2010 -0.3223
 2299SOL    HW1 7032   3.779   4.980   0.888 -0.0756 -0.6042  0.2935
 2299SOL    HW2 7033   3.766   4.834   0.928  0.0762 -1.0006 -1.0462
 2300SOL     OW 7034   2.781   0.711   1.336  1.1921  0.1187 -0.2306
 2300SOL    HW1 7035   2.786   0.616   1.320  3.6072  0.1623 -0.2001
 2300SOL    HW2 7036   2.792   0.719   1.431  0.0871  0.4132 -0.1198
 2301SOL     OW 7037   3.809   2.644   4.596  0.0986 -0.0696  0.3414
 2301SOL    HW1 7038   3.873   2.587   4.638 -0.0388  1.2268  2.4189
 2301SOL    HW2 7039   3.739   2.652   4.660  0.1015  2.3747  0.1073
 2302SOL     OW 7040   3.335   4.450   0.357  0.4816 -0.2706  0.0476
 2302SOL    HW1 7041   3.389   4.379   0.324 -1.4903 -1.3093 -1.1813
 2302SOL    HW2 7042   3.392   4.500   0.415  2.6683 -1.3289 -1.0951
 2303SOL     OW 7043   0.201   1.988   2.045  0.1251 -0.2569 -0.1479
 2303SOL    HW1 7044   0.179   2.060   1.985  0.9171  0.7094  0.6920
 2303SOL    HW2 7045   0.182   1.908   1.995 -0.4048  0.5279 -1.2339
 2304SOL     OW 7046   2.171   2.309   2.504 -0.1317 -0.4336  0.3373
 2304SOL    HW1 7047   2.211   2.222   2.496 -0.0366 -0.3364 -0.2944
 2304SOL    HW2 7048   2.148   2.333   2.415  1.1837  0.8267  0.3021
 2305SOL     OW 7049   3.457   1.363   0.883 -0.7190  0.0165  0.0388
 2305SOL    HW1 7050   3.425   1.451   0.904 -0.6299 -0.1122  0.7405
 2305SOL    HW2 7051   3.378   1.312   0.865 -0.8058  0.1236  0.1101
 2306SOL     OW 7052   1.195   2.144   4.719  0.3568 -0.3976 -0.4868
 2306SOL    HW1 7053   1.262   2.207   4.692 -0.1640 -0.2271 -1.4287
 2306SOL    HW2 7054   1.243   2.065   4.741  0.8684 -0.2881 -1.1835
 2307SOL     OW 7055   4.922   1.849   4.804 -0.2196  0.0927 -0.1771
 2307SOL    HW1 7056   4.898   1.835   4.896 -0.2747 -1.1186 -0.3635
 2307SOL    HW2 7057   4.912   1.763   4.763 -0.5927  0.7074 -1.4158
 2308SOL     OW 7058   1.660   3.421   1.771 -0.0610  0.5415  0.2483
 2308SOL    HW1 7059   1.648   3.354   1.704 -1.4601  1.4471 -0.4414
 2308SOL    HW2 7060   1.686   3.500   1.723  2.2820  0.3891  1.1126
 2309SOL     OW 7061   2.135   1.479   1.445  0.5860 -0.1206 -0.2032
 2309SOL    HW1 7062   2.099   1.409   1.498  2.4725  0.1812  1.6216
 2309SOL    HW2 7063   2.199   1.436   1.388  2.3036  0.1245  1.4522
 2310SOL     OW 7064   0.020   2.154   1.113 -0.5675  0.2088 -0.3012
 2310SOL    HW1 7065   0.001   2.061   1.121  4.1499 -0.9867  0.0130
 2310SOL    HW2 7066   0.001   2.175   1.022 -1.6112 -1.0356 -0.3938
 2311SOL     OW 7067   1.456   4.799   0.999  0.0731  0.2281 -0.2040
 2311SOL    HW1 7068   1.488   4.881   0.961 -0.8300  0.6711 -0.0507
 2311SOL    HW2 7069   1.528   4.737   0.987  1.3150  1.3819  0.8941
 2312SOL     OW 7070   3.402   3.365   2.393 -0.2717  0.1972  0.1408
 2312SOL    HW1 7071   3.365   3.287   2.352  1.6221 -0.9593  0.5215
 2312SOL    HW2 7072   3.446   3.412   2.322  1.7503 -1.0487  0.4936
 2313SOL     OW 7073   1.675   0.300   1.983  0.0250 -0.6164 -0.4051
 2313SOL    HW1 7074   1.593   0.282   2.030 -0.6343  2.0000 -0.4081
 2313SOL    HW2 7075   1.732   0.226   2.006 -1.9717 -2.0212  0.3787
 2314SOL     OW 7076   2.630   2.590   2.153 -0.3298 -0.6375  0.9681
 2314SOL    HW1 7077   2.663   2.527   2.089  0.3705 -0.5560  1.2387
 2314SOL    HW2 7078   2.565   2.542   2.203 -2.2399 -0.2186 -0.9411
 2315SOL     OW 7079   1.386   2.524   3.419 -0.5454 -0.0335 -0.5345
 2315SOL    HW1 7080   1.329   2.583   3.469  0.8334  0.7317  0.1911
 2315SOL    HW2 7081   1.396   2.569   3.334 -1.3551 -0.3957 -0.8359
 2316SOL     OW 7082   0.796   4.128   4.844 -0.0670  0.0267 -0.0125
 2316SOL    HW1 7083   0.741   4.176   4.905 -0.5156  0.7114 -0.9336
 2316SOL    HW2 7084   0.791   4.037   4.874  1.2366  0.5728  2.0908
 2317SOL     OW 7085   1.033   4.375   0.142 -0.5877  0.2710  0.0720
 2317SOL    HW1 7086   0.940   4.364   0.162 -1.1113  1.1249 -1.7214
 2317SOL    HW2 7087   1.057   4.296   0.094 -0.5816  0.4095 -0.1512
 2318SOL     OW 7088   4.599   1.498   0.759 -0.0311 -0.3957  0.0418
 2318SOL    HW1 7089   4.643   1.472   0.840 -1.0849  0.4837  0.9217
 2318SOL    HW2 7090   4.569   1.587   0.775 -2.2277 -0.9835 -0.4416
 2319SOL     OW 7091   2.048   2.581   2.379 -0.2414  0.3814  0.4762
 2319SOL    HW1 7092   2.060   2.505   2.323  0.8778  1.2347 -0.5030
 2319SOL    HW2 7093   2.135   2.620   2.386 -0.8917  1.9542  0.3606
 2320SOL     OW 7094   4.616   0.976   3.668  0.1480 -0.7323 -0.0125
 2320SOL    HW1 7095   4.641   1.026   3.745 -0.0928  0.5824 -0.7507
 2320SOL    HW2 7096   4.560   0.905   3.701 -2.2903  1.4127  0.8072
 2321SOL     OW 7097   4.907   1.142   1.994  0.1489  0.5389 -0.3378
 2321SOL    HW1 7098   4.897   1.051   2.020  0.8065  0.6670  0.3962
 2321SOL    HW2 7099   4.818   1.176   1.989 -0.0551  0.1476  0.4754
 2322SOL     OW 7100   0.902   0.812   2.912  0.2291  0.2657 -0.5733
 2322SOL    HW1 7101   0.838   0.847   2.850  0.2691 -0.1636 -0.8521
 2322SOL    HW2 7102   0.848   0.767   2.978  0.1136  1.5196  0.2388
 2323SOL     OW 7103   0.988   2.432   0.082  0.1892 -0.4708 -0.8941
 2323SOL    HW1 7104   0.998   2.401  -0.009 -1.8756  0.4344 -1.4766
 2323SOL    HW2 7105   0.965   2.524   0.073 -2.5817 -0.9444  0.3855
 2324SOL     OW 7106   2.720   3.618   1.090  0.0254 -0.4816  0.0857
 2324SOL    HW1 7107   2.785   3.686   1.109  0.5067 -1.6130  3.0933
 2324SOL    HW2 7108   2.771   3.546   1.053 -0.1480 -0.0588 -1.0217
 2325SOL     OW 7109   0.925   3.028   3.824 -0.1009 -0.0558  0.2207
 2325SOL    HW1 7110   0.892   3.004   3.911  1.0360  0.5645  0.8481
 2325SOL    HW2 7111   0.846   3.038   3.770 -0.9746  1.3269  1.6479
 2326SOL     OW 7112   2.182   1.153   0.270  0.2543  0.0543 -0.6290
 2326SOL    HW1 7113   2.196   1.219   0.203 -1.1332 -1.6299 -2.6992
 2326SOL    HW2 7114   2.266   1.148   0.316  0.8195  2.2142 -1.2947
 2327SOL     OW 7115   2.765   0.658   1.048  0.7212 -0.6564  0.1387
 2327SOL    HW1 7116   2.810   0.723   0.994  0.5741 -1.7535 -1.3906
 2327SOL    HW2 7117   2.715   0.709   1.112  1.2479  0.6880 -0.4990
 2328SOL     OW 7118   1.189   0.464   0.110 -0.3294  0.4337 -0.1594
 2328SOL    HW1 7119   1.135   0.415   0.172  1.0747  1.1945  1.7770
 2328SOL    HW2 7120   1.207   0.402   0.039  0.2970 -1.4685  1.5494
 2329SOL     OW 7121   1.836   1.694   4.047  0.1854 -0.2496 -0.2653
 2329SOL    HW1 7122   1.749   1.657   4.058  0.7724 -2.0795 -1.4026
 2329SOL    HW2 7123   1.833   1.737   3.961  0.0982  0.6920  0.1920
 2330SOL     OW 7124   4.062   3.683   1.332 -0.1470  0.4946  0.4789
 2330SOL    HW1 7125   4.032   3.592   1.337 -0.3772  0.4223 -1.6194
 2330SOL    HW2 7126   3.992   3.733   1.375 -0.4409 -0.2192  0.8593
 2331SOL     OW 7127   0.505   3.184   4.971  0.7376 -0.4791  0.2272
 2331SOL    HW1 7128   0.539   3.216   4.888  1.3169 -0.9763  0.2661
 2331SOL    HW2 7129   0.418   3.223   4.978  1.0427  0.2921 -0.1827
 2332SOL     OW 7130   4.783   4.057   4.612  0.3496  0.3541  0.0967
 2332SOL    HW1 7131   4.818   3.968   4.617  0.7424  0.4562 -0.6306
 2332SOL    HW2 7132   4.857   4.113   4.637  0.1159  0.4752  0.5121
 2333SOL     OW 7133   1.837   2.529   2.551  0.4370 -0.1583 -0.0712
 2333SOL    HW1 7134   1.902   2.566   2.491  1.5617 -0.9540  0.6276
 2333SOL    HW2 7135   1.849   2.577   2.632  1.0423 -1.1625  0.4498
 2334SOL     OW 7136   4.878   4.775   3.763 -0.2874  0.1336  0.4594
 2334SOL    HW1 7137   4.798   4.825   3.750  0.2746  1.7786  2.5767
 2334SOL    HW2 7138   4.850   4.695   3.807 -0.8532  0.5109  0.8051
 2335SOL     OW 7139   3.091   3.017   2.684  0.3547  0.0201  0.4994
 2335SOL    HW1 7140   3.135   2.932   2.692 -0.9169 -0.6871  0.2004
 2335SOL    HW2 7141   3.161   3.078   2.659  1.1593 -1.0670  0.0149
 2336SOL     OW 7142   1.227   0.456   4.556 -0.0528 -0.0759  0.0571
 2336SOL    HW1 7143   1.179   0.533   4.586 -0.5773 -0.2591 -0.2949
 2336SOL    HW2 7144   1.161   0.386   4.552 -0.3968  0.2821 -2.9074
 2337SOL     OW 7145   4.805   4.589   4.937  0.1161  0.1629  0.4979
 2337SOL    HW1 7146   4.743   4.614   4.868  2.0021  1.0613 -0.9821
 2337SOL    HW2 7147   4.822   4.497   4.921  0.6340  0.3944 -0.3579
 2338SOL     OW 7148   0.188   4.934   2.342 -0.1119 -0.5562  0.1137
 2338SOL    HW1 7149   0.199   4.941   2.437  0.2870 -0.0669  0.0325
 2338SOL    HW2 7150   0.271   4.962   2.306 -0.6634  0.4491 -0.4190
 2339SOL     OW 7151   3.101   3.465   1.670 -0.0746  0.3461  0.0804
 2339SOL    HW1 7152   3.185   3.426   1.645 -0.4671 -0.6705  0.2956
 2339SOL    HW2 7153   3.067   3.406   1.738 -0.9219  0.7996  0.0612
 2340SOL     OW 7154   2.295   1.239   4.436 -0.0364 -0.1087 -0.0677
 2340SOL    HW1 7155   2.248   1.164   4.473 -0.7811 -0.5759 -1.8262
 2340SOL    HW2 7156   2.386   1.211   4.432 -0.3981 -1.2509 -1.3410
 2341SOL     OW 7157   0.314   3.772   0.067  0.3766  0.0975  0.3210
 2341SOL    HW1 7158   0.357   3.695   0.028 -0.1215  0.0754 -0.1877
 2341SOL    HW2 7159   0.298   3.831  -0.006 -0.0158  0.3210  0.5818
 2342SOL     OW 7160   3.763   3.816   0.485 -0.0727 -0.9170 -0.8154
 2342SOL    HW1 7161   3.789   3.760   0.413  0.4447 -0.6551 -0.8345
 2342SOL    HW2 7162   3.845   3.845   0.524 -0.0075  3.1220 -3.3210
 2343SOL     OW 7163   2.545   0.868   3.761  0.2226 -0.0524 -0.4772
 2343SOL    HW1 7164   2.501   0.890   3.679  0.3029 -0.6202 -0.6800
 2343SOL    HW2 7165   2.486   0.899   3.830 -0.5485 -0.8669 -0.7464
 2344SOL     OW 7166   2.304   4.407   4.799  0.5722  0.3800 -0.0268
 2344SOL    HW1 7167   2.295   4.501   4.813  2.6129  1.0485 -2.3705
 2344SOL    HW2 7168   2.216   4.372   4.810 -0.2667  2.5932  0.7097
 2345SOL     OW 7169   2.536   3.068   1.012  0.0005 -0.7315  0.2116
 2345SOL    HW1 7170   2.527   2.984   0.967 -1.5157 -0.8324  0.6390
 2345SOL    HW2 7171   2.518   3.048   1.104 -0.8977  0.1289  0.2392
 2346SOL     OW 7172   2.376   2.765   0.734  0.1728  0.0997 -0.0966
 2346SOL    HW1 7173   2.454   2.769   0.789  1.2145 -1.6231 -1.3631
 2346SOL    HW2 7174   2.401   2.709   0.660 -2.3192 -0.6940 -0.4322
 2347SOL     OW 7175   1.378   3.615   0.989  0.7086  0.7619 -0.4035
 2347SOL    HW1 7176   1.315   3.576   1.050  1.4354  2.5456  1.6123
 2347SOL    HW2 7177   1.354   3.579   0.904 -0.8050 -1.3118  0.8017
 2348SOL     OW 7178   1.926   3.229   1.345 -0.2940  0.2745 -0.5619
 2348SOL    HW1 7179   1.854   3.240   1.407  2.0732  0.4135  2.3220
 2348SOL    HW2 7180   1.950   3.319   1.320 -1.0869  0.2258 -1.5851
 2349SOL     OW 7181   3.881   2.702   2.458  0.0973  0.3802 -0.0132
 2349SOL    HW1 7182   3.805   2.652   2.429 -0.0121  0.9959 -0.8113
 2349SOL    HW2 7183   3.905   2.756   2.383  2.1232 -0.7434 -0.2761
 2350SOL     OW 7184   0.695   3.973   2.600  0.2561 -0.0602 -0.9333
 2350SOL    HW1 7185   0.694   3.902   2.536 -2.3995 -0.4365 -0.5767
 2350SOL    HW2 7186   0.729   3.932   2.680 -1.2063 -0.9732 -0.7441
 2351SOL     OW 7187   0.403   3.118   4.364  0.0315  0.1913  0.0856
 2351SOL    HW1 7188   0.396   3.023   4.365  0.8220  0.1001 -0.8424
 2351SOL    HW2 7189   0.356   3.144   4.285  1.3399  0.3978 -0.6545
 2352SOL     OW 7190   4.802   4.551   3.028 -0.0223  0.0744  0.2327
 2352SOL    HW1 7191   4.713   4.585   3.030  0.9196  2.8444  0.1393
 2352SOL    HW2 7192   4.799   4.470   3.078 -2.1462  1.2722  2.2062
 2353SOL     OW 7193   4.727   4.717   0.217 -0.0541 -0.0096 -1.0671
 2353SOL    HW1 7194   4.812   4.729   0.259 -0.2662 -2.3187  0.1737
 2353SOL    HW2 7195   4.747   4.678   0.132  0.1167 -1.6084 -0.3181
 2354SOL     OW 7196   2.536   0.934   1.267 -0.1948 -0.0382 -0.4476
 2354SOL    HW1 7197   2.514   0.845   1.239 -2.4330  0.7847 -1.5720
 2354SOL    HW2 7198   2.479   0.990   1.214  1.4174  2.1023 -0.0357
 2355SOL     OW 7199   1.635   4.415   3.470 -0.0305  0.5228 -0.7062
 2355SOL    HW1 7200   1.572   4.435   3.539 -0.0854  0.2126 -0.6644
 2355SOL    HW2 7201   1.582   4.377   3.399  0.4792 -3.2299  0.7082
 2356SOL     OW 7202   4.800   2.212   1.255  0.3925 -0.3604 -0.0325
 2356SOL    HW1 7203   4.885   2.223   1.213  0.3987  2.3465  0.5063
 2356SOL    HW2 7204   4.820   2.197   1.347  0.2888 -2.1694 -0.2721
 2357SOL     OW 7205   3.975   4.624   4.048  0.1648  0.2909  0.4533
 2357SOL    HW1 7206   4.011   4.711   4.068 -0.0461  0.8788 -1.5199
 2357SOL    HW2 7207   4.051   4.566   4.050  1.2181  1.3498 -2.6524
 2358SOL     OW 7208   1.529   0.930   4.136 -0.0523  0.3207 -0.4751
 2358SOL    HW1 7209   1.569   0.865   4.078 -0.3945 -0.4146  0.0928
 2358SOL    HW2 7210   1.507   0.880   4.215 -0.4241  1.1098 -0.0757
 2359SOL     OW 7211   1.239   1.467   0.843 -0.0143 -0.2485 -0.2764
 2359SOL    HW1 7212   1.201   1.425   0.766 -1.0269 -1.3399  0.7837
 2359SOL    HW2 7213   1.329   1.436   0.845  0.1926  0.2266 -1.3018
 2360SOL     OW 7214   2.559   1.145   1.672 -0.2008 -0.4399 -0.0174
 2360SOL    HW1 7215   2.613   1.222   1.691 -0.4924 -0.9020  3.4678
 2360SOL    HW2 7216   2.615   1.088   1.620  1.6932  0.2777  1.1194
 2361SOL     OW 7217   4.512   2.206   0.930 -0.5766  0.6197  0.8222
 2361SOL    HW1 7218   4.484   2.134   0.873 -0.1242  1.5432 -0.6360
 2361SOL    HW2 7219   4.432   2.255   0.948 -0.3735  2.0515 -1.6104
 2362SOL     OW 7220   0.779   1.996   4.151  0.7205  0.6368  0.0357
 2362SOL    HW1 7221   0.771   1.901   4.149 -0.1194  0.6984  0.2377
 2362SOL    HW2 7222   0.708   2.025   4.208 -1.2120  1.6153 -2.6607
 2363SOL     OW 7223   2.479   3.724   0.156 -0.0677  0.3585 -0.0797
 2363SOL    HW1 7224   2.471   3.647   0.212 -2.1371 -0.9375 -1.9997
 2363SOL    HW2 7225   2.573   3.735   0.143  0.2934 -3.1813 -1.4071
 2364SOL     OW 7226   2.585   1.966   3.608 -0.2497 -0.0895 -0.9903
 2364SOL    HW1 7227   2.577   2.045   3.555  0.1495  1.5258  1.2252
 2364SOL    HW2 7228   2.499   1.955   3.648  0.0918  0.0701 -0.1927
 2365SOL     OW 7229   2.357   3.610   1.357 -0.1582 -0.2577 -0.1135
 2365SOL    HW1 7230   2.290   3.602   1.289  0.9415  2.1668 -1.6124
 2365SOL    HW2 7231   2.412   3.532   1.344 -0.3201 -0.1498 -1.6235
 2366SOL     OW 7232   1.726   4.632   3.333 -0.2412 -0.3943  0.1822
 2366SOL    HW1 7233   1.705   4.568   3.401  0.3506 -1.6735 -0.7986
 2366SOL    HW2 7234   1.695   4.592   3.252  0.3364  0.4744 -0.4828
 2367SOL     OW 7235   0.449   3.691   3.583 -0.5079  1.2855  0.4941
 2367SOL    HW1 7236   0.445   3.596   3.597 -0.1152  1.0379 -0.8785
 2367SOL    HW2 7237   0.480   3.726   3.666 -0.1417  0.1550  0.8642
 2368SOL     OW 7238   3.240   1.210   2.716  0.1756  0.3183 -0.5859
 2368SOL    HW1 7239   3.217   1.189   2.806 -1.2795  1.0709 -0.7516
 2368SOL    HW2 7240   3.333   1.188   2.709 -0.0233 -1.1211  0.6723
 2369SOL     OW 7241   0.534   3.955   1.769  0.5234  0.2417  0.6390
 2369SOL    HW1 7242   0.486   3.967   1.686  0.1096  0.8817  0.9595
 2369SOL    HW2 7243   0.509   3.868   1.798  0.9278 -0.1237 -0.0710
 2370SOL     OW 7244   0.399   1.047   0.733 -0.1058 -0.1017 -0.0655
 2370SOL    HW1 7245   0.338   1.111   0.768  1.1368  0.8136  0.4744
 2370SOL    HW2 7246   0.476   1.054   0.788  1.0509 -0.2105 -1.5923
 2371SOL     OW 7247   4.107   1.743   1.860 -0.8411 -0.1192  0.4803
 2371SOL    HW1 7248   4.166   1.817   1.847  0.1622 -0.5539  2.2004
 2371SOL    HW2 7249   4.020   1.781   1.854 -0.5210  0.4172 -2.8595
 2372SOL     OW 7250   3.376   1.947   2.915 -0.2054 -0.2215 -0.3743
 2372SOL    HW1 7251   3.377   1.957   2.820 -0.4184 -0.9226 -0.4582
 2372SOL    HW2 7252   3.300   1.891   2.932 -0.1186 -0.1660  0.1992
 2373SOL     OW 7253   0.087   2.473   1.172  0.2184 -0.1605 -0.5104
 2373SOL    HW1 7254   0.048   2.501   1.255 -2.3171 -1.0935 -1.2935
 2373SOL    HW2 7255   0.133   2.392   1.193 -0.7109 -0.5852 -0.0499
 2374SOL     OW 7256   0.895   3.799   0.896 -0.1307  0.0654 -0.1866
 2374SOL    HW1 7257   0.815   3.748   0.908  0.2926 -0.5472  0.0355
 2374SOL    HW2 7258   0.945   3.750   0.831  0.6864 -0.2998  0.6929
 2375SOL     OW 7259   0.107   1.789   0.054  0.2588  0.8546 -0.7343
 2375SOL    HW1 7260   0.101   1.694   0.044  0.8252  0.4753  1.7702
 2375SOL    HW2 7261   0.017   1.820   0.051 -0.0053  0.1052 -0.5735
 2376SOL     OW 7262   4.034   4.346   0.393  1.1198 -0.5308 -0.4071
 2376SOL    HW1 7263   4.064   4.408   0.327 -0.9953  0.9435 -0.0757
 2376SOL    HW2 7264   4.009   4.268   0.343 -1.1371  0.8202 -1.5367
 2377SOL     OW 7265   4.059   2.108   1.646  0.1851  0.3667  0.0235
 2377SOL    HW1 7266   4.131   2.046   1.656 -0.6347 -0.7713 -0.9223
 2377SOL    HW2 7267   4.058   2.130   1.553 -0.0933  1.1240  0.1948
 2378SOL     OW 7268   2.001   0.287   0.827  0.1496  0.1982  0.8594
 2378SOL    HW1 7269   2.085   0.245   0.812 -0.2666  0.4887 -3.6899
 2378SOL    HW2 7270   2.023   0.374   0.860  1.8212  0.6086 -1.0945
 2379SOL     OW 7271   2.855   4.254   3.677 -0.2809 -0.4700 -0.4095
 2379SOL    HW1 7272   2.941   4.290   3.700  1.9114 -4.1389 -1.9921
 2379SOL    HW2 7273   2.849   4.265   3.582 -1.0252 -1.2421 -0.4651
 2380SOL     OW 7274   1.350   1.153   3.601 -0.1365 -0.3178 -0.8089
 2380SOL    HW1 7275   1.319   1.240   3.628  0.2394 -0.9671  2.1046
 2380SOL    HW2 7276   1.275   1.096   3.617  0.1911 -0.7786 -0.9185
 2381SOL     OW 7277   1.503   1.479   0.283  0.3414  0.2393 -0.1282
 2381SOL    HW1 7278   1.475   1.388   0.281 -1.1431  0.5926  1.6219
 2381SOL    HW2 7279   1.579   1.479   0.341  0.4920  0.0834 -0.3255
 2382SOL     OW 7280   3.501   1.475   4.445  0.3992  0.3663 -0.7897
 2382SOL    HW1 7281   3.478   1.389   4.411  0.1871 -1.5323  3.5073
 2382SOL    HW2 7282   3.597   1.476   4.445  0.4594 -0.8892  1.1179
 2383SOL     OW 7283   4.494   4.115   4.032  0.3159 -0.0765 -0.6010
 2383SOL    HW1 7284   4.575   4.077   3.999  0.8956  1.2019 -0.7384
 2383SOL    HW2 7285   4.520   4.163   4.111 -0.2602  0.5004 -0.7475
 2384SOL     OW 7286   2.290   3.390   2.633 -0.7447  1.1918 -0.4677
 2384SOL    HW1 7287   2.285   3.297   2.654  0.7003  1.0756 -0.5278
 2384SOL    HW2 7288   2.384   3.409   2.632 -1.0504  2.8910  0.5916
 2385SOL     OW 7289   1.399   2.249   4.577  0.3184 -0.1007 -0.3588
 2385SOL    HW1 7290   1.468   2.295   4.528  0.4669  1.3163  1.1069
 2385SOL    HW2 7291   1.429   2.158   4.580  3.3524  0.8002  2.0883
 2386SOL     OW 7292   0.277   3.023   1.657  0.0298 -0.0046  0.0654
 2386SOL    HW1 7293   0.307   2.947   1.708  1.1994  1.5017  1.7319
 2386SOL    HW2 7294   0.322   3.013   1.573  0.0138 -1.2483  0.1784
 2387SOL     OW 7295   1.597   2.901   2.599  0.0172  0.8162 -0.2444
 2387SOL    HW1 7296   1.588   2.852   2.517 -1.5075  1.5128 -0.5211
 2387SOL    HW2 7297   1.690   2.892   2.622  0.7916  1.7113 -2.7389
 2388SOL     OW 7298   2.714   3.529   1.835  0.5784 -0.0103 -0.3453
 2388SOL    HW1 7299   2.705   3.619   1.867 -1.2313  0.0622 -0.9872
 2388SOL    HW2 7300   2.629   3.489   1.852  1.2727 -1.5287 -0.3343
 2389SOL     OW 7301   0.713   1.255   3.551 -0.3360 -0.4987 -0.1346
 2389SOL    HW1 7302   0.774   1.262   3.478 -0.9715 -0.1235 -0.6461
 2389SOL    HW2 7303   0.738   1.174   3.595  1.3135  0.2758  0.4319
 2390SOL     OW 7304   3.892   1.679   0.444 -0.1737  0.0700  0.1287
 2390SOL    HW1 7305   3.906   1.737   0.369 -0.9065 -0.5077 -0.4685
 2390SOL    HW2 7306   3.962   1.614   0.437 -0.9184 -0.6657 -0.7444
 2391SOL     OW 7307   3.276   0.041   2.275 -0.0313  0.8327  0.1300
 2391SOL    HW1 7308   3.214   0.012   2.208  0.4830  0.3478 -0.1540
 2391SOL    HW2 7309   3.360   0.004   2.247  0.2845  1.0323  0.7866
 2392SOL     OW 7310   1.948   3.430   1.959  0.6952  0.5709  0.1586
 2392SOL    HW1 7311   1.911   3.518   1.966 -0.5454  0.2152 -1.3541
 2392SOL    HW2 7312   1.908   3.394   1.879 -0.3195 -2.0692  1.7403
 2393SOL     OW 7313   0.331   3.467   4.435  0.7761 -0.1682 -0.1922
 2393SOL    HW1 7314   0.268   3.413   4.387  0.3828 -2.0172  2.1938
 2393SOL    HW2 7315   0.409   3.467   4.380  0.0597 -1.3784 -1.2719
 2394SOL     OW 7316   4.272   4.795   1.619  0.3578 -0.2574  0.5416
 2394SOL    HW1 7317   4.244   4.746   1.696  1.2821 -0.9855  0.4330
 2394SOL    HW2 7318   4.356   4.755   1.594 -0.2972 -0.5723 -1.3133
 2395SOL     OW 7319   4.614   2.420   1.285 -0.1581 -0.3314  0.3060
 2395SOL    HW1 7320   4.519   2.421   1.298 -0.2272 -2.6483  0.4130
 2395SOL    HW2 7321   4.638   2.327   1.293  2.1724  0.2482  0.6849
 2396SOL     OW 7322   2.899   0.863   0.933  0.3176 -0.2705 -0.2322
 2396SOL    HW1 7323   2.890   0.850   0.839 -1.0055 -2.2759  0.0984
 2396SOL    HW2 7324   2.949   0.944   0.942  0.9733 -0.3448 -2.6413
 2397SOL     OW 7325   3.445   0.303   3.587 -0.0407  0.0114 -0.1211
 2397SOL    HW1 7326   3.399   0.381   3.557 -0.8060 -1.0173 -1.7809
 2397SOL    HW2 7327   3.524   0.300   3.533 -0.1332 -0.4762 -0.2351
 2398SOL     OW 7328   2.793   3.169   3.734 -0.2405  0.7067  0.3291
 2398SOL    HW1 7329   2.763   3.236   3.673  0.0526  2.4534  1.9972
 2398SOL    HW2 7330   2.723   3.163   3.799 -0.4815 -0.9987 -0.0541
 2399SOL     OW 7331   3.199   3.259   1.366  0.0403 -0.0252  0.8178
 2399SOL    HW1 7332   3.151   3.318   1.307 -0.5656  0.1938  1.5171
 2399SOL    HW2 7333   3.205   3.176   1.317 -1.2283 -0.1163  0.7917
 2400SOL     OW 7334   1.374   1.409   2.027  0.0039  0.0061 -0.2651
 2400SOL    HW1 7335   1.365   1.403   1.932 -0.1209  3.3833 -0.5900
 2400SOL    HW2 7336   1.284   1.399   2.060 -0.1221  0.0030 -0.6029
 2401SOL     OW 7337   4.874   0.825   3.411  0.7075 -0.4127  0.5742
 2401SOL    HW1 7338   4.925   0.887   3.359  0.6520 -0.4236  0.5065
 2401SOL    HW2 7339   4.927   0.810   3.489  0.9674 -0.6969  0.3399
 2402SOL     OW 7340   3.206   4.131   2.832 -0.1245  0.3930 -0.1450
 2402SOL    HW1 7341   3.271   4.192   2.866  1.5112  0.2057 -2.6397
 2402SOL    HW2 7342   3.255   4.051   2.813 -1.4378 -0.3627 -0.5020
 2403SOL     OW 7343   2.433   4.434   1.056 -0.0407  0.5507 -0.5865
 2403SOL    HW1 7344   2.444   4.340   1.043 -1.5576  0.2803 -0.1170
 2403SOL    HW2 7345   2.518   4.464   1.088  0.6448 -0.5406 -1.3408
 2404SOL     OW 7346   4.782   3.764   2.109  1.0085  0.3782  0.2185
 2404SOL    HW1 7347   4.802   3.700   2.178  0.5863 -2.1096 -1.7937
 2404SOL    HW2 7348   4.867   3.790   2.075  1.2649  2.2963  2.1428
 2405SOL     OW 7349   4.282   2.170   0.311  0.6973  0.8493  0.7438
 2405SOL    HW1 7350   4.197   2.174   0.268  0.5793 -0.4607  0.8237
 2405SOL    HW2 7351   4.263   2.177   0.404  0.8799  2.7363  0.6827
 2406SOL     OW 7352   4.445   1.309   2.344  0.6969  0.1547 -0.7883
 2406SOL    HW1 7353   4.525   1.270   2.381 -0.5105 -0.5708  1.2554
 2406SOL    HW2 7354   4.404   1.238   2.295 -0.6941 -0.8337  1.6091
 2407SOL     OW 7355   3.384   3.162   2.648  0.1419 -0.1092 -0.1444
 2407SOL    HW1 7356   3.310   3.223   2.651 -1.3326 -1.6739 -1.9291
 2407SOL    HW2 7357   3.443   3.199   2.582 -0.4796 -0.3052 -0.8207
 2408SOL     OW 7358   2.735   4.502   0.170  0.1773  0.4776 -0.0381
 2408SOL    HW1 7359   2.779   4.493   0.254  0.7284 -1.6400 -0.5077
 2408SOL    HW2 7360   2.672   4.430   0.167  0.2138  0.4640 -1.4588
 2409SOL     OW 7361   1.183   5.006   3.164  0.1167  0.5890 -0.1181
 2409SOL    HW1 7362   1.235   4.929   3.189 -0.0094  0.8099  0.8733
 2409SOL    HW2 7363   1.128   5.023   3.241 -0.9126  0.7945 -0.8809
 2410SOL     OW 7364   4.759   0.108   3.325 -0.4183 -0.0017 -0.5140
 2410SOL    HW1 7365   4.806   0.069   3.251  0.1894  0.6931 -0.5044
 2410SOL    HW2 7366   4.726   0.033   3.375  3.8051 -0.7735  1.5519
 2411SOL     OW 7367   4.471   2.405   3.460  0.2433  0.4078  0.2036
 2411SOL    HW1 7368   4.379   2.416   3.438 -0.2494  0.1012  1.9856
 2411SOL    HW2 7369   4.477   2.427   3.553  1.6076 -1.4639  0.6294
 2412SOL     OW 7370   2.433   4.627   0.767  0.4697 -0.4667 -0.1863
 2412SOL    HW1 7371   2.418   4.651   0.676  1.1096 -0.7331 -0.3742
 2412SOL    HW2 7372   2.478   4.703   0.805 -2.0964  0.7427  0.6423
 2413SOL     OW 7373   1.225   3.293   0.797  0.0721  0.5256  0.8217
 2413SOL    HW1 7374   1.309   3.297   0.842  0.3002  0.6843  0.3923
 2413SOL    HW2 7375   1.168   3.245   0.857  0.5558  0.1317  0.9809
 2414SOL     OW 7376   2.763   0.152   4.188 -0.0130 -0.0738 -0.1023
 2414SOL    HW1 7377   2.718   0.197   4.259 -0.4544  0.8495 -0.9342
 2414SOL    HW2 7378   2.811   0.221   4.142  1.0418 -0.8106 -0.1312
 2415SOL     OW 7379   1.361   0.925   3.030 -0.8365  0.1041  0.2097
 2415SOL    HW1 7380   1.283   0.882   2.993 -0.7976 -1.6918  2.0188
 2415SOL    HW2 7381   1.435   0.883   2.986 -0.8074  1.9180 -1.6213
 2416SOL     OW 7382   2.637   0.049   1.493  0.3361  0.1100 -0.3027
 2416SOL    HW1 7383   2.646   0.064   1.399  0.6439  0.3164 -0.2428
 2416SOL    HW2 7384   2.727   0.049   1.526  0.3204 -1.3837 -0.2122
 2417SOL     OW 7385   0.709   4.279   0.690  0.2679 -0.2482 -0.2430
 2417SOL    HW1 7386   0.789   4.305   0.644 -0.3046  0.1950 -1.0112
 2417SOL    HW2 7387   0.692   4.190   0.659 -0.2678  0.1485 -1.1264
 2418SOL     OW 7388   1.472   4.850   1.288  0.0443 -0.4598  0.4575
 2418SOL    HW1 7389   1.502   4.941   1.291 -0.9879 -0.1161  0.8207
 2418SOL    HW2 7390   1.425   4.843   1.205  0.0450 -0.6429  0.4722
 2419SOL     OW 7391   3.059   1.338   1.678 -0.1966  0.3546  0.7173
 2419SOL    HW1 7392   3.008   1.285   1.616  1.9003 -0.4357 -0.4625
 2419SOL    HW2 7393   3.134   1.368   1.627  0.9906  0.7191  2.5877
 2420SOL     OW 7394   2.052   3.873   3.395  0.0955 -0.2346  0.7761
 2420SOL    HW1 7395   2.130   3.859   3.341 -0.1809  0.9840  0.0122
 2420SOL    HW2 7396   2.032   3.787   3.431  0.6338 -0.9667 -0.6115
 2421SOL     OW 7397   4.817   4.544   3.562 -0.1882  0.2086 -0.2514
 2421SOL    HW1 7398   4.854   4.616   3.611  0.0046 -0.9598  1.4035
 2421SOL    HW2 7399   4.875   4.534   3.486  2.6295 -1.1454  1.8962
 2422SOL     OW 7400   1.609   2.753   2.375 -0.0620  0.2770  0.1360
 2422SOL    HW1 7401   1.626   2.799   2.292 -0.4580  0.2181  0.0203
 2422SOL    HW2 7402   1.632   2.662   2.357 -1.2444  0.0335 -0.2767
 2423SOL     OW 7403   3.153   2.633   2.917 -0.1239 -0.7509  0.2679
 2423SOL    HW1 7404   3.179   2.612   2.827 -0.2050 -1.6958  0.4584
 2423SOL    HW2 7405   3.198   2.568   2.971  0.9807  0.5984  1.0551
 2424SOL     OW 7406   4.061   1.471   1.884 -0.1306  0.7277  0.6247
 2424SOL    HW1 7407   3.966   1.486   1.882 -0.1652  0.4738  0.3252
 2424SOL    HW2 7408   4.098   1.559   1.893 -0.4122  0.7820  1.3750
 2425SOL     OW 7409   2.784   0.749   1.601 -0.0859  0.0877 -0.2350
 2425SOL    HW1 7410   2.760   0.678   1.660 -0.4099  0.5025  0.1461
 2425SOL    HW2 7411   2.851   0.798   1.648  0.8712 -0.5250 -0.9100
 2426SOL     OW 7412   0.242   2.581   3.601 -0.1390 -0.5079  0.0383
 2426SOL    HW1 7413   0.225   2.658   3.655 -0.0913 -1.2209  1.1019
 2426SOL    HW2 7414   0.282   2.519   3.661 -3.8225 -2.9221  0.3097
 2427SOL     OW 7415   1.109   4.293   4.552 -1.1083  0.0747  0.2284
 2427SOL    HW1 7416   1.070   4.285   4.465 -1.9380 -0.7707  0.6590
 2427SOL    HW2 7417   1.035   4.308   4.611 -0.5386  0.8117  0.7779
 2428SOL     OW 7418   2.338   0.499   1.790 -0.2393 -0.2844  0.8482
 2428SOL    HW1 7419   2.257   0.487   1.741 -0.7976  1.7297  1.1894
 2428SOL    HW2 7420   2.337   0.591   1.817  1.7946 -0.3999  1.5286
 2429SOL     OW 7421   0.989   2.080   4.908  0.1149 -0.4786 -0.3010
 2429SOL    HW1 7422   1.035   2.155   4.945  0.6697 -0.8716 -0.1898
 2429SOL    HW2 7423   1.014   2.079   4.816  1.0107 -1.1898 -0.0592
 2430SOL     OW 7424   3.866   3.482   1.986 -0.6376 -0.6023  0.2373
 2430SOL    HW1 7425   3.883   3.501   2.078  1.0267  0.3157 -0.2254
 2430SOL    HW2 7426   3.771   3.468   1.982 -0.5918 -2.0370  2.3120
 2431SOL     OW 7427   3.125   3.464   1.003 -0.3553  0.5905  0.0517
 2431SOL    HW1 7428   3.081   3.386   1.037 -4.3497  1.8230 -1.7177
 2431SOL    HW2 7429   3.153   3.511   1.082  1.0839 -1.9247  1.1875
 2432SOL     OW 7430   3.067   0.208   3.244  0.2156 -0.5853 -0.0852
 2432SOL    HW1 7431   3.019   0.160   3.312  1.2351 -1.3729  0.0936
 2432SOL    HW2 7432   3.088   0.292   3.285 -0.4509 -0.4769  0.0510
 2433SOL     OW 7433   0.052   3.965   4.653  0.0396 -0.6163  0.5800
 2433SOL    HW1 7434   0.016   3.878   4.639  1.1031 -1.5488  3.0752
 2433SOL    HW2 7435   0.143   3.960   4.623  0.6312 -0.9629  2.2902
 2434SOL     OW 7436   0.589   2.118   0.294  0.4280  0.3085 -0.0187
 2434SOL    HW1 7437   0.676   2.152   0.273  0.8220 -0.4201  0.4033
 2434SOL    HW2 7438   0.531   2.193   0.282  1.0239  0.6447 -0.8920
 2435SOL     OW 7439   0.265   4.773   0.413  0.3497 -0.2848  0.4354
 2435SOL    HW1 7440   0.269   4.790   0.507  0.9371 -1.3347  0.6123
 2435SOL    HW2 7441   0.182   4.726   0.401 -0.9638  1.9660  0.0354
 2436SOL     OW 7442   4.603   0.655   3.040  0.2688 -0.4473  0.3609
 2436SOL    HW1 7443   4.677   0.621   3.090 -0.2392 -1.3589  0.5236
 2436SOL    HW2 7444   4.631   0.648   2.949  0.5210 -0.4482  0.4364
 2437SOL     OW 7445   2.957   1.638   2.631  0.4695  0.2696  0.7536
 2437SOL    HW1 7446   2.881   1.652   2.688  0.7439  1.7235  0.8167
 2437SOL    HW2 7447   2.951   1.547   2.604 -0.5997  0.0189  1.7677
 2438SOL     OW 7448   3.655   2.768   3.520  0.0649  0.1539 -0.4221
 2438SOL    HW1 7449   3.648   2.850   3.471  2.1479  1.6342  1.5306
 2438SOL    HW2 7450   3.707   2.710   3.465  2.7244  1.9251  0.0708
 2439SOL     OW 7451   3.967   4.884   3.752  0.0282 -0.7259  1.0024
 2439SOL    HW1 7452   3.883   4.842   3.736 -1.4444  1.4301  2.4312
 2439SOL    HW2 7453   4.004   4.837   3.826 -0.0433 -1.4873  0.5660
 2440SOL     OW 7454   1.015   0.454   3.781 -0.6390 -0.0875 -0.0475
 2440SOL    HW1 7455   1.107   0.440   3.759 -0.4292  1.3370 -0.1571
 2440SOL    HW2 7456   0.974   0.479   3.699 -0.9222  0.2358  0.1905
 2441SOL     OW 7457   1.952   3.493   4.612 -0.2562  0.1660  0.3183
 2441SOL    HW1 7458   1.971   3.578   4.571 -0.4570  0.2349  0.3664
 2441SOL    HW2 7459   2.037   3.450   4.619  0.0392  0.9071  1.5218
 2442SOL     OW 7460   4.801   2.452   1.058  0.0496 -0.0683 -0.3029
 2442SOL    HW1 7461   4.893   2.454   1.085  0.1475 -0.1668 -0.6274
 2442SOL    HW2 7462   4.757   2.403   1.128  0.1339  0.5211  0.1697
 2443SOL     OW 7463   4.641   3.099   0.995  0.3092  0.1925 -0.0605
 2443SOL    HW1 7464   4.670   3.189   1.011 -0.1453  0.1586  1.0022
 2443SOL    HW2 7465   4.640   3.091   0.899 -0.7409  1.6812 -0.2112
 2444SOL     OW 7466   3.051   4.656   4.417 -0.5331 -0.3015 -0.2171
 2444SOL    HW1 7467   3.013   4.619   4.337 -0.8013  1.3685 -0.9017
 2444SOL    HW2 7468   3.048   4.751   4.404  2.2269 -0.0165  0.4579
 2445SOL     OW 7469   1.528   0.420   4.086  0.3050 -0.5624 -0.6950
 2445SOL    HW1 7470   1.594   0.477   4.126 -0.1023  1.8660 -3.1681
 2445SOL    HW2 7471   1.446   0.444   4.129  0.1955  0.5116 -1.4695
 2446SOL     OW 7472   1.470   0.091   3.256 -0.4147 -0.1444 -0.1295
 2446SOL    HW1 7473   1.521   0.153   3.204 -0.0558 -0.8441 -0.6359
 2446SOL    HW2 7474   1.519   0.009   3.249 -0.7055 -0.4028  0.7974
 2447SOL     OW 7475   0.838   3.744   1.370 -0.1366  0.1621 -0.6814
 2447SOL    HW1 7476   0.781   3.672   1.396 -0.0227  0.4631  0.4613
 2447SOL    HW2 7477   0.887   3.710   1.295  0.2727 -1.1404  0.1330
 2448SOL     OW 7478   2.267   3.801   0.406 -0.4263 -0.4384  0.2480
 2448SOL    HW1 7479   2.202   3.745   0.364 -0.3944 -0.1666 -0.1767
 2448SOL    HW2 7480   2.333   3.741   0.441 -0.9762 -0.7205  0.8060
 2449SOL     OW 7481   3.448   4.074   3.392 -0.2939 -0.1274  0.8315
 2449SOL    HW1 7482   3.363   4.057   3.352 -0.9893  0.2689  2.0906
 2449SOL    HW2 7483   3.466   3.997   3.445 -0.0525 -0.0437  0.8745
 2450SOL     OW 7484   4.983   1.201   3.835 -0.5166  0.7378 -0.0035
 2450SOL    HW1 7485   4.997   1.115   3.795 -0.3766 -0.4067  2.3584
 2450SOL    HW2 7486   4.997   1.263   3.763  1.4077 -1.0921 -1.3198
 2451SOL     OW 7487   2.769   4.617   1.956 -0.1533 -0.0453  0.9010
 2451SOL    HW1 7488   2.779   4.712   1.952 -0.8451  0.0465  1.2012
 2451SOL    HW2 7489   2.764   4.598   2.050 -0.3911 -0.3340  0.8319
 2452SOL     OW 7490   3.244   2.894   4.900  0.6192  0.2707 -0.1689
 2452SOL    HW1 7491   3.285   2.877   4.985  2.0573 -0.2439 -0.9304
 2452SOL    HW2 7492   3.295   2.842   4.838  1.0041  2.3448 -1.6681
 2453SOL     OW 7493   0.611   4.798   3.937  0.6540  0.0763 -0.1729
 2453SOL    HW1 7494   0.546   4.794   3.867  0.1232 -0.4109  0.3338
 2453SOL    HW2 7495   0.635   4.890   3.942 -0.4620  0.3760  0.0373
 2454SOL     OW 7496   0.933   1.850   3.482 -0.4838  0.7030 -0.2702
 2454SOL    HW1 7497   0.964   1.936   3.512  0.7723 -0.6599  2.9135
 2454SOL    HW2 7498   1.001   1.819   3.422 -0.4986  1.5668 -0.7350
 2455SOL     OW 7499   2.160   2.550   1.984 -0.3449 -0.5142 -0.2003
 2455SOL    HW1 7500   2.231   2.539   1.920  1.0758  0.0521  1.2067
 2455SOL    HW2 7501   2.181   2.489   2.054 -0.7151  0.3567  0.6864
 2456SOL     OW 7502   1.893   1.580   1.130 -0.1379 -0.3636 -0.0355
 2456SOL    HW1 7503   1.832   1.653   1.136 -0.9020 -0.4443 -3.9344
 2456SOL    HW2 7504   1.980   1.621   1.130 -0.3486  0.1394  1.3460
 2457SOL     OW 7505   2.984   2.557   3.524  0.1984 -0.0402  0.3525
 2457SOL    HW1 7506   2.967   2.519   3.611 -4.6093 -2.0467 -1.1233
 2457SOL    HW2 7507   2.976   2.652   3.538 -1.0090 -0.3426  2.0492
 2458SOL     OW 7508   3.048   0.245   2.024  0.4078 -0.6136 -0.0688
 2458SOL    HW1 7509   3.131   0.283   2.054  0.5217  0.2081 -1.3114
 2458SOL    HW2 7510   3.073   0.159   1.991  0.5826 -0.7930  0.5186
 2459SOL     OW 7511   4.614   3.888   3.455 -0.3357 -0.5644  0.4332
 2459SOL    HW1 7512   4.616   3.801   3.495  0.1552  0.4142  2.7096
 2459SOL    HW2 7513   4.522   3.913   3.456 -0.5155 -1.1363 -0.4932
 2460SOL     OW 7514   3.822   1.018   1.446 -0.1314 -0.5445  0.2955
 2460SOL    HW1 7515   3.824   1.076   1.523 -1.3036 -1.5264  1.1095
 2460SOL    HW2 7516   3.820   1.077   1.371  1.8835  0.4550  0.9408
 2461SOL     OW 7517   2.831   2.056   4.735 -0.0803 -0.0659 -0.3607
 2461SOL    HW1 7518   2.884   2.110   4.676  0.5404  0.6566  0.8146
 2461SOL    HW2 7519   2.741   2.086   4.720  0.0191 -0.1572 -1.1985
 2462SOL     OW 7520   4.642   4.489   1.001 -0.3969 -0.6001  0.0955
 2462SOL    HW1 7521   4.657   4.439   1.082  2.1665  1.0328  0.7798
 2462SOL    HW2 7522   4.630   4.579   1.031 -1.3594 -0.2520 -1.2630
 2463SOL     OW 7523   0.159   4.497   4.780 -0.4207  0.5072 -0.3802
 2463SOL    HW1 7524   0.135   4.522   4.691 -1.6668 -1.2530 -0.5938
 2463SOL    HW2 7525   0.097   4.544   4.836 -1.9530 -1.0061 -0.7046
 2464SOL     OW 7526   0.222   2.534   3.899 -0.2133 -0.4875 -0.3298
 2464SOL    HW1 7527   0.295   2.516   3.959 -0.1486 -1.6105 -0.7149
 2464SOL    HW2 7528   0.181   2.448   3.885 -2.2272  0.2589  0.6444
 2465SOL     OW 7529   1.243   1.189   4.445 -0.1669  0.4460  0.0785
 2465SOL    HW1 7530   1.244   1.265   4.503  1.3043 -0.2978  1.0848
 2465SOL    HW2 7531   1.325   1.195   4.396 -0.7705  0.3288 -0.9780
 2466SOL     OW 7532   0.200   3.200   2.377  0.3838  0.2323 -0.0451
 2466SOL    HW1 7533   0.249   3.161   2.449  1.4485  1.8863  0.1575
 2466SOL    HW2 7534   0.146   3.267   2.418 -1.3076 -0.8468 -0.4131
 2467SOL     OW 7535  -0.016   0.332   1.662 -0.3028 -0.1841 -0.1336
 2467SOL    HW1 7536   0.042   0.256   1.664 -0.1114 -0.0569 -0.6105
 2467SOL    HW2 7537   0.043   0.407   1.668 -0.5132 -0.0718  0.6700
 2468SOL     OW 7538   4.337   1.974   1.626 -1.2504 -0.1366  0.6568
 2468SOL    HW1 7539   4.334   1.998   1.719 -1.4106 -2.5855  1.3396
 2468SOL    HW2 7540   4.356   1.881   1.625 -2.2725 -0.4013 -1.7560
 2469SOL     OW 7541   4.004   2.037   0.954  0.3925 -1.1470 -0.3292
 2469SOL    HW1 7542   4.028   1.983   1.029  1.1743  1.6961  1.6356
 2469SOL    HW2 7543   4.078   2.096   0.942 -0.9371  0.3697 -1.4601
 2470SOL     OW 7544   1.955   3.014   2.390  0.0271 -0.1683  0.2427
 2470SOL    HW1 7545   1.922   3.011   2.479 -0.2570 -0.7122  0.1226
 2470SOL    HW2 7546   1.928   2.930   2.351  1.0880 -0.4052 -0.0141
 2471SOL     OW 7547   2.931   2.223   4.971 -0.1091 -0.3549  0.3976
 2471SOL    HW1 7548   2.899   2.166   4.901  0.0186 -0.8280  0.7216
 2471SOL    HW2 7549   2.894   2.309   4.950 -0.8144 -0.6867  0.2476
 2472SOL     OW 7550   2.872   1.285   4.622 -0.0272 -0.1899 -0.0739
 2472SOL    HW1 7551   2.888   1.310   4.713  2.3862 -2.5196  0.2826
 2472SOL    HW2 7552   2.790   1.235   4.625 -0.4722  0.5642  0.6337
 2473SOL     OW 7553   1.821   3.261   1.023  0.4843 -0.1972  0.4419
 2473SOL    HW1 7554   1.901   3.244   0.973 -0.0074 -0.2473 -0.3493
 2473SOL    HW2 7555   1.802   3.353   1.007  1.0796  0.1511  1.6712
 2474SOL     OW 7556   2.282   3.619   2.784 -0.0357  0.1737 -0.5427
 2474SOL    HW1 7557   2.339   3.592   2.856 -0.4921  0.8560  0.0963
 2474SOL    HW2 7558   2.280   3.544   2.725  1.2621  0.0231 -0.4239
 2475SOL     OW 7559   3.671   0.840   0.327 -0.0073  0.2775 -0.8279
 2475SOL    HW1 7560   3.581   0.838   0.361  0.3324  0.3044  0.1063
 2475SOL    HW2 7561   3.680   0.927   0.287 -0.2917  0.3985 -0.6294
 2476SOL     OW 7562   0.609   4.576   1.117 -0.5973  0.2239  0.7282
 2476SOL    HW1 7563   0.655   4.631   1.180 -2.0270 -0.5721  2.5704
 2476SOL    HW2 7564   0.671   4.566   1.044  0.7808  1.8920  1.5898
 2477SOL     OW 7565   2.162   3.171   3.608 -0.2586  0.0322  0.1157
 2477SOL    HW1 7566   2.089   3.221   3.573  0.8742  1.0903 -0.8149
 2477SOL    HW2 7567   2.191   3.115   3.535 -1.0524 -1.5159  0.9241
 2478SOL     OW 7568   0.497   3.695   1.825 -0.8538  0.2798 -0.3990
 2478SOL    HW1 7569   0.578   3.648   1.806 -2.8478 -3.7101 -0.0603
 2478SOL    HW2 7570   0.435   3.627   1.849 -3.7704  3.3093  1.5698
 2479SOL     OW 7571   1.038   1.642   4.869 -0.0520  0.1752 -0.0690
 2479SOL    HW1 7572   0.965   1.629   4.810 -0.6748 -1.4483  0.9960
 2479SOL    HW2 7573   1.103   1.576   4.843  0.4732  0.7091 -0.1455
 2480SOL     OW 7574   2.291   3.046   0.654 -0.2185  0.1079 -0.4294
 2480SOL    HW1 7575   2.251   3.063   0.740  1.8696  0.5868  0.5116
 2480SOL    HW2 7576   2.317   2.954   0.658 -0.8456 -0.1024 -0.9054
 2481SOL     OW 7577   4.315   3.761   3.277  0.4213  0.2441 -0.5871
 2481SOL    HW1 7578   4.399   3.780   3.237  0.6192  1.1866  0.2278
 2481SOL    HW2 7579   4.321   3.800   3.364 -1.6130  2.2139 -1.2500
 2482SOL     OW 7580   0.479   4.059   3.445  0.6818 -0.1505 -0.4924
 2482SOL    HW1 7581   0.560   4.010   3.429 -0.0478 -1.4115 -0.4708
 2482SOL    HW2 7582   0.410   3.999   3.419 -0.2813  0.6554  0.1474
 2483SOL     OW 7583   0.172   0.392   3.312  0.1088 -0.0962 -0.0010
 2483SOL    HW1 7584   0.235   0.346   3.368 -1.0883  0.4266  1.8422
 2483SOL    HW2 7585   0.202   0.373   3.223  1.5020 -1.7924  0.7609
 2484SOL     OW 7586   2.201   0.384   0.611 -0.3783 -0.2257  0.5500
 2484SOL    HW1 7587   2.259   0.449   0.652  1.3029 -0.7646 -0.8671
 2484SOL    HW2 7588   2.235   0.299   0.643  1.0264 -0.6654 -1.9008
 2485SOL     OW 7589   1.521   3.927   2.502  0.6341  0.0111 -0.4197
 2485SOL    HW1 7590   1.533   3.856   2.564 -0.6793 -0.3766 -0.5754
 2485SOL    HW2 7591   1.609   3.951   2.474  1.0779 -2.0554 -0.9254
 2486SOL     OW 7592   1.296   3.152   2.076  0.6789  0.3483  0.0105
 2486SOL    HW1 7593   1.334   3.131   1.990 -0.2082 -0.1698 -0.2660
 2486SOL    HW2 7594   1.208   3.184   2.056  0.0040 -0.9507  0.7951
 2487SOL     OW 7595   0.784   3.407   2.594  0.5613  0.5068  0.4080
 2487SOL    HW1 7596   0.785   3.323   2.547  0.5971 -0.5182  2.1477
 2487SOL    HW2 7597   0.836   3.466   2.540 -0.5999 -0.1671 -1.5712
 2488SOL     OW 7598   4.336   3.968   1.075 -0.2694 -0.0083  0.1764
 2488SOL    HW1 7599   4.403   3.946   1.010 -0.6632  0.6372 -0.4694
 2488SOL    HW2 7600   4.315   3.885   1.118 -0.7268 -0.6494 -1.2189
 2489SOL     OW 7601   1.060   2.523   4.546  0.2699 -0.0352  0.8529
 2489SOL    HW1 7602   1.124   2.467   4.501  1.4267 -0.7583  3.2229
 2489SOL    HW2 7603   0.987   2.465   4.566  1.1010 -0.5298  2.5637
 2490SOL     OW 7604   0.734   4.606   4.302  0.3150  0.2094 -0.5036
 2490SOL    HW1 7605   0.717   4.642   4.389  0.1627 -1.3478  0.1434
 2490SOL    HW2 7606   0.757   4.682   4.249  0.9609  1.1388  1.0305
 2491SOL     OW 7607   0.418   3.520   0.028 -0.3860  0.3380 -0.6954
 2491SOL    HW1 7608   0.336   3.475   0.006  0.3621 -1.5156  0.1243
 2491SOL    HW2 7609   0.450   3.475   0.106  0.7073  1.9784 -0.1580
 2492SOL     OW 7610   2.149   0.381   0.323  0.3873 -0.0708  0.1980
 2492SOL    HW1 7611   2.142   0.381   0.418 -1.2339  2.0274  0.1502
 2492SOL    HW2 7612   2.200   0.459   0.302 -0.4097  0.2397 -0.6769
 2493SOL     OW 7613   0.081   4.443   3.118 -0.0587  0.2529  0.1367
 2493SOL    HW1 7614   0.027   4.443   3.039 -0.6341  2.0846  0.4950
 2493SOL    HW2 7615   0.122   4.529   3.119 -1.5123  1.0282  2.7780
 2494SOL     OW 7616   1.705   1.591   2.084  0.2944 -0.5191  0.3593
 2494SOL    HW1 7617   1.783   1.595   2.029  0.6672  0.3799  0.9331
 2494SOL    HW2 7618   1.732   1.632   2.166 -0.3693 -1.4825  1.0768
 2495SOL     OW 7619   0.419   3.789   3.134 -0.5623 -0.2952 -0.3774
 2495SOL    HW1 7620   0.325   3.788   3.114 -0.5777 -0.5437 -0.2917
 2495SOL    HW2 7621   0.432   3.714   3.192 -0.3217 -0.2222 -0.3371
 2496SOL     OW 7622   0.644   3.630   4.438  0.1262 -0.4776 -0.2205
 2496SOL    HW1 7623   0.642   3.710   4.490  0.6110 -0.5996 -0.0026
 2496SOL    HW2 7624   0.731   3.593   4.454 -0.0756 -1.0259 -0.3504
 2497SOL     OW 7625   2.351   4.040   2.344  0.4250 -0.1350  0.2317
 2497SOL    HW1 7626   2.400   4.103   2.396 -0.7815  0.7846  0.3039
 2497SOL    HW2 7627   2.392   4.044   2.257 -0.3911  1.7058 -0.1199
 2498SOL     OW 7628   0.747   1.700   3.367  0.5121  0.1593 -0.0219
 2498SOL    HW1 7629   0.808   1.753   3.418  1.2678 -1.2882  0.6275
 2498SOL    HW2 7630   0.702   1.646   3.432 -0.3740  0.1216 -0.6487
 2499SOL     OW 7631   2.943   2.979   1.151  0.1535 -0.6882  0.1426
 2499SOL    HW1 7632   2.984   2.932   1.078  2.3142  1.5307 -0.1884
 2499SOL    HW2 7633   2.886   3.044   1.108 -0.5874 -1.0729  0.5236
 2500SOL     OW 7634   0.638   3.365   3.083  0.0494 -0.0266  0.3970
 2500SOL    HW1 7635   0.615   3.451   3.048  0.1175 -0.9249 -2.0758
 2500SOL    HW2 7636   0.668   3.316   3.006  1.7370 -1.6975  2.0313
 2501SOL     OW 7637   4.529   4.842   1.538  0.3946  0.3721 -0.1432
 2501SOL    HW1 7638   4.547   4.922   1.588 -1.9436 -0.3387  2.0459
 2501SOL    HW2 7639   4.596   4.780   1.566 -0.9531 -0.0620  2.4150
 2502SOL     OW 7640   0.880   3.929   2.855  0.0134 -0.2129 -0.1456
 2502SOL    HW1 7641   0.888   3.837   2.830 -1.1055 -0.3390 -0.1046
 2502SOL    HW2 7642   0.968   3.955   2.882  0.8743 -0.5900 -2.4147
 2503SOL     OW 7643   4.046   3.768   4.621  0.4493  0.3493  0.1270
 2503SOL    HW1 7644   4.133   3.730   4.629  0.3932  0.2866  0.4536
 2503SOL    HW2 7645   4.014   3.737   4.537  1.3522  1.6404 -0.7397
 2504SOL     OW 7646   1.443   2.823   3.386 -0.2970  0.0790  0.7148
 2504SOL    HW1 7647   1.375   2.885   3.359  0.1796 -0.0598 -0.9149
 2504SOL    HW2 7648   1.451   2.762   3.312  1.8211  0.3091  0.6907
 2505SOL     OW 7649   0.332   3.976   4.865  0.3038 -0.0075 -0.1143
 2505SOL    HW1 7650   0.320   4.069   4.881 -2.0125 -0.5101  1.8075
 2505SOL    HW2 7651   0.250   3.948   4.824  0.7154 -1.2859 -0.1091
 2506SOL     OW 7652   2.902   4.703   0.926  0.5598  0.8503 -0.2080
 2506SOL    HW1 7653   2.901   4.773   0.992 -1.0639  1.1440 -0.4982
 2506SOL    HW2 7654   2.913   4.749   0.843 -1.3714  0.8810 -0.4802
 2507SOL     OW 7655   1.257   3.614   4.344  0.3650  0.4874  0.1115
 2507SOL    HW1 7656   1.231   3.532   4.387 -1.6775  0.2194 -1.4688
 2507SOL    HW2 7657   1.179   3.642   4.296  1.8761  1.8032 -1.7703
 2508SOL     OW 7658   4.316   0.994   4.606  0.0688  0.0076  0.2901
 2508SOL    HW1 7659   4.354   0.906   4.600 -1.4126 -0.6554  0.3662
 2508SOL    HW2 7660   4.281   0.998   4.695  0.2820  0.7602  0.3463
 2509SOL     OW 7661   3.233   3.206   4.700  0.2915 -0.7386  0.2072
 2509SOL    HW1 7662   3.224   3.154   4.620  0.9458  1.4564 -1.4138
 2509SOL    HW2 7663   3.157   3.183   4.753  0.2529 -2.8310 -0.6910
 2510SOL     OW 7664   2.247   3.865   4.426  0.1188 -0.3498  0.2251
 2510SOL    HW1 7665   2.304   3.846   4.351  2.5642  1.5041  1.4485
 2510SOL    HW2 7666   2.199   3.784   4.442  1.0839 -1.4363 -2.0273
 2511SOL     OW 7667   0.193   1.028   3.017 -0.7290  0.2223 -0.2191
 2511SOL    HW1 7668   0.202   0.977   2.937 -0.8085 -0.6350  0.2975
 2511SOL    HW2 7669   0.237   1.110   2.999  1.7929 -1.0490 -0.1997
 2512SOL     OW 7670   4.177   1.852   4.877  0.9482  0.5253  0.1682
 2512SOL    HW1 7671   4.239   1.786   4.848  1.1311  1.4014 -1.5580
 2512SOL    HW2 7672   4.171   1.840   4.972  1.1730 -1.7597 -0.0563
 2513SOL     OW 7673   3.639   3.186   3.492  0.5669  0.2482 -0.0204
 2513SOL    HW1 7674   3.660   3.137   3.412  1.3307  2.4935 -1.2973
 2513SOL    HW2 7675   3.715   3.243   3.505  0.1221  0.4427  1.9189
 2514SOL     OW 7676   3.191   1.380   3.828  0.0151 -0.1462  0.4276
 2514SOL    HW1 7677   3.246   1.451   3.795  0.7362 -1.0883 -0.4834
 2514SOL    HW2 7678   3.254   1.315   3.859 -0.5216 -1.6146 -1.4064
 2515SOL     OW 7679   0.491   2.944   1.421  0.5488 -0.2942 -0.0618
 2515SOL    HW1 7680   0.472   3.037   1.432  0.8957 -0.2141 -0.1071
 2515SOL    HW2 7681   0.444   2.919   1.342 -1.0251 -0.5999  0.9382
 2516SOL     OW 7682   2.098   1.510   3.986  0.3159 -1.1773  0.0961
 2516SOL    HW1 7683   2.068   1.478   4.071 -0.5474  0.9570  0.6797
 2516SOL    HW2 7684   2.018   1.535   3.940  0.8514 -1.1974 -0.8752
 2517SOL     OW 7685   4.518   2.283   4.763 -0.4697  0.3147 -0.0058
 2517SOL    HW1 7686   4.504   2.193   4.794 -2.2089  0.6968  0.4750
 2517SOL    HW2 7687   4.539   2.274   4.670  1.0581 -0.6535  0.3969
 2518SOL     OW 7688   0.365   1.022   4.348 -0.8023  0.0543 -0.1634
 2518SOL    HW1 7689   0.283   0.982   4.317 -0.2215 -0.4522 -1.1190
 2518SOL    HW2 7690   0.412   1.045   4.267  1.2579 -2.2823  0.2537
 2519SOL     OW 7691   0.579   0.018   3.344  0.1375 -0.5214  0.2450
 2519SOL    HW1 7692   0.657   0.021   3.289  0.2992 -1.4144  0.4086
 2519SOL    HW2 7693   0.591   0.089   3.407 -0.8970  1.7419 -1.9255
 2520SOL     OW 7694   4.665   2.713   4.885  0.0303 -0.3426 -0.2555
 2520SOL    HW1 7695   4.684   2.621   4.905 -2.5969 -1.0707 -0.6871
 2520SOL    HW2 7696   4.746   2.759   4.905  2.0152 -2.9619 -1.5802
 2521SOL     OW 7697   4.291   4.294   3.765  0.3581 -0.4365  0.1432
 2521SOL    HW1 7698   4.348   4.217   3.771  0.1453 -0.5397  1.0022
 2521SOL    HW2 7699   4.250   4.300   3.851  3.5044  3.0856  1.7138
 2522SOL     OW 7700   3.472   1.541   3.765 -0.9786 -0.2889  0.3835
 2522SOL    HW1 7701   3.540   1.562   3.829 -1.5584  1.1775  0.5388
 2522SOL    HW2 7702   3.519   1.533   3.682 -0.6662  1.3717  0.3711
 2523SOL     OW 7703   1.215   2.197   1.115  0.3030 -0.5263  0.4134
 2523SOL    HW1 7704   1.292   2.250   1.096  0.9705 -1.5546  0.1884
 2523SOL    HW2 7705   1.173   2.184   1.030 -0.0399 -0.1026  0.5132
 2524SOL     OW 7706   4.592   4.157   2.381  0.0345  0.3984  0.2587
 2524SOL    HW1 7707   4.679   4.175   2.415 -0.2017  1.5977  0.2465
 2524SOL    HW2 7708   4.600   4.071   2.339  1.2656  0.6022  0.0474
 2525SOL     OW 7709   0.860   3.215   1.807  0.0600 -0.1591 -0.0542
 2525SOL    HW1 7710   0.837   3.201   1.715 -1.5176 -1.2083  0.4607
 2525SOL    HW2 7711   0.955   3.202   1.811  0.2581  0.5325 -1.6201
 2526SOL     OW 7712   2.869   1.827   4.209  0.0317  0.2917  0.2361
 2526SOL    HW1 7713   2.900   1.796   4.124 -0.2157  0.8458 -0.0655
 2526SOL    HW2 7714   2.782   1.788   4.218 -0.1001  0.5437  0.0578
 2527SOL     OW 7715   2.987   0.802   0.340  0.1301 -0.6841 -0.0732
 2527SOL    HW1 7716   2.942   0.719   0.328  1.0559 -1.5185  1.9001
 2527SOL    HW2 7717   3.076   0.786   0.308  0.6409 -0.8299  1.3727
 2528SOL     OW 7718   4.148   4.021   3.659 -0.2262 -0.1180 -0.4030
 2528SOL    HW1 7719   4.159   3.999   3.751  1.7554 -0.2809 -0.6304
 2528SOL    HW2 7720   4.145   4.116   3.657 -1.4265 -0.1368 -0.0851
 2529SOL     OW 7721   3.106   4.801   4.685  0.3774 -0.1666  0.6177
 2529SOL    HW1 7722   3.055   4.878   4.711 -0.4696 -0.4222 -0.2383
 2529SOL    HW2 7723   3.187   4.838   4.650 -0.2642  0.3906 -0.3313
 2530SOL     OW 7724   3.758   3.217   0.772  0.3893  0.3291  0.0320
 2530SOL    HW1 7725   3.828   3.176   0.721  2.6652  0.2647  2.9194
 2530SOL    HW2 7726   3.739   3.155   0.842 -1.9800  0.7640 -0.1363
 2531SOL     OW 7727   3.419   0.308   1.737  0.7555 -0.1670 -0.1694
 2531SOL    HW1 7728   3.485   0.258   1.784  1.9035 -0.8977 -2.3906
 2531SOL    HW2 7729   3.460   0.393   1.721 -0.3596  0.7992  1.6896
 2532SOL     OW 7730   3.501   2.990   2.031  0.1262 -0.0401  0.1049
 2532SOL    HW1 7731   3.581   3.038   2.052 -0.9399  2.3577 -0.8231
 2532SOL    HW2 7732   3.496   2.993   1.936 -0.9416 -0.3412  0.1400
 2533SOL     OW 7733   4.340   2.372   1.362 -0.4956  0.2999 -0.1183
 2533SOL    HW1 7734   4.272   2.427   1.400 -1.2799 -1.2075  0.7375
 2533SOL    HW2 7735   4.318   2.283   1.390  0.9320 -0.4229 -1.1536
 2534SOL     OW 7736   2.641   1.420   0.989  0.0320 -0.3272  0.1222
 2534SOL    HW1 7737   2.628   1.465   1.073  0.7626  1.4280 -0.6539
 2534SOL    HW2 7738   2.696   1.344   1.012 -0.5983 -0.4398  1.3652
 2535SOL     OW 7739   2.819   4.882   4.860  0.4800 -0.3191  0.1876
 2535SOL    HW1 7740   2.809   4.824   4.935 -1.9563 -0.2332  0.0029
 2535SOL    HW2 7741   2.795   4.829   4.784  0.9708  0.1505 -0.3058
 2536SOL     OW 7742   1.045   4.870   1.565 -0.1470 -0.0103  0.7399
 2536SOL    HW1 7743   1.009   4.815   1.496  0.0099  1.2857 -0.4295
 2536SOL    HW2 7744   1.100   4.933   1.518 -0.3027  1.1141  2.0276
 2537SOL     OW 7745   4.930   2.193   3.640 -0.1974  0.0243 -0.0021
 2537SOL    HW1 7746   4.964   2.104   3.651  0.5233  0.4648  1.7458
 2537SOL    HW2 7747   4.837   2.181   3.624 -0.0400 -1.0572 -0.1798
 2538SOL     OW 7748   4.282   1.515   1.137  0.1469 -0.4229  0.0632
 2538SOL    HW1 7749   4.313   1.468   1.059  1.3613  0.6522 -0.1377
 2538SOL    HW2 7750   4.202   1.469   1.162  0.2185 -1.3549 -1.2849
 2539SOL     OW 7751   1.511   3.350   3.026 -0.3428  0.2974 -0.1695
 2539SOL    HW1 7752   1.559   3.429   3.000  2.8353 -1.1280  0.8077
 2539SOL    HW2 7753   1.569   3.278   3.002 -0.7737 -1.4765  3.4171
 2540SOL     OW 7754   1.302   2.686   4.707  0.0124 -0.1226  0.6895
 2540SOL    HW1 7755   1.353   2.680   4.626 -1.0180  0.2257  0.0067
 2540SOL    HW2 7756   1.245   2.761   4.695 -0.6073 -0.4489  1.4839
 2541SOL     OW 7757   1.720   2.304   3.284  0.3704  0.1983  0.2705
 2541SOL    HW1 7758   1.807   2.290   3.246  0.5859  0.5526  0.6352
 2541SOL    HW2 7759   1.662   2.307   3.208  0.6117 -0.4727  0.0464
 2542SOL     OW 7760   4.812   0.550   4.299  0.4488  0.2099 -0.3545
 2542SOL    HW1 7761   4.879   0.544   4.231  0.9724  0.0542  0.1651
 2542SOL    HW2 7762   4.752   0.618   4.269  0.2386 -0.3932 -1.3453
 2543SOL     OW 7763   0.749   2.844   1.448 -0.1917  0.4199 -0.5152
 2543SOL    HW1 7764   0.658   2.865   1.430 -0.3771  0.1231  0.0746
 2543SOL    HW2 7765   0.759   2.753   1.420 -0.5521 -0.1373  1.0694
 2544SOL     OW 7766   1.351   4.578   4.469 -0.4764 -0.0019  0.4769
 2544SOL    HW1 7767   1.294   4.603   4.542 -1.4384 -1.5162  0.2824
 2544SOL    HW2 7768   1.299   4.598   4.391 -0.6424 -1.1119  0.2899
 2545SOL     OW 7769   4.249   3.667   2.958  0.3729 -0.3715 -0.3232
 2545SOL    HW1 7770   4.194   3.611   3.012 -0.0467  0.3058 -0.0444
 2545SOL    HW2 7771   4.301   3.718   3.020  0.3498 -0.0478 -0.5647
 2546SOL     OW 7772   0.399   3.859   0.743  0.2680  0.0235  0.6033
 2546SOL    HW1 7773   0.389   3.830   0.652  0.7645  0.2575  0.4691
 2546SOL    HW2 7774   0.314   3.896   0.766  0.3917  0.7310 -0.0435
 2547SOL     OW 7775   0.156   1.970   2.943 -0.1361  0.2438 -0.1108
 2547SOL    HW1 7776   0.173   1.902   3.008 -1.0274  1.4852  1.4992
 2547SOL    HW2 7777   0.074   1.943   2.901  0.9785 -1.0973 -1.5056
 2548SOL     OW 7778   2.470   1.067   2.888  0.8469  0.0284  0.3002
 2548SOL    HW1 7779   2.501   1.091   2.800  0.5384 -1.7057 -0.3169
 2548SOL    HW2 7780   2.408   0.996   2.873 -1.0218  1.2374  1.7560
 2549SOL     OW 7781   4.402   1.376   3.661  0.1256 -0.5823  0.3252
 2549SOL    HW1 7782   4.406   1.290   3.619  2.5155  0.1073 -1.0477
 2549SOL    HW2 7783   4.491   1.394   3.688  0.0080  2.0252 -0.6755
 2550SOL     OW 7784   1.709   3.119   3.937 -0.0263  0.1945 -0.1922
 2550SOL    HW1 7785   1.771   3.079   3.877 -0.3178 -0.3039 -0.1670
 2550SOL    HW2 7786   1.715   3.066   4.017 -0.3426  0.2572 -0.1241
 2551SOL     OW 7787   0.080   3.384   4.315  0.5446  0.2632 -0.2636
 2551SOL    HW1 7788   0.030   3.321   4.366  1.8609  0.7323  1.7168
 2551SOL    HW2 7789   0.027   3.463   4.316 -0.0458 -0.1112 -0.7990
 2552SOL     OW 7790   0.892   0.075   4.698  0.0026  0.7372  0.3736
 2552SOL    HW1 7791   0.802   0.104   4.682  0.3319  0.8434 -1.4975
 2552SOL    HW2 7792   0.882  -0.003   4.753 -1.2875  0.2175 -0.5499
 2553SOL     OW 7793   1.755   3.597   3.076 -0.4383 -0.0802  0.5858
 2553SOL    HW1 7794   1.838   3.549   3.077  1.4015  2.8383 -0.3455
 2553SOL    HW2 7795   1.720   3.581   2.988  0.7037  1.0409 -0.1046
 2554SOL     OW 7796   3.442   0.607   2.366 -0.4202  0.0740 -0.4602
 2554SOL    HW1 7797   3.478   0.628   2.280 -1.2407  2.1119 -0.3635
 2554SOL    HW2 7798   3.517   0.604   2.424 -0.2127  4.6954 -0.1583
 2555SOL     OW 7799   1.718   4.898   4.110  0.2133 -0.2922  0.7200
 2555SOL    HW1 7800   1.805   4.931   4.092  0.7544 -2.1853 -0.4612
 2555SOL    HW2 7801   1.728   4.802   4.109 -1.8651 -0.5636  0.5710
 2556SOL     OW 7802   3.727   2.028   1.402  0.1897 -0.4306  0.0742
 2556SOL    HW1 7803   3.757   1.952   1.452  0.1379 -1.8527 -1.9142
 2556SOL    HW2 7804   3.807   2.068   1.369  0.3734  1.7040  2.7480
 2557SOL     OW 7805   4.134   2.741   2.536  0.2065 -0.2189  0.0558
 2557SOL    HW1 7806   4.042   2.713   2.531  0.5584 -1.3451 -0.4716
 2557SOL    HW2 7807   4.148   2.790   2.455 -0.0218  0.3048  0.3227
 2558SOL     OW 7808   4.356   1.389   0.914  0.3432 -0.7035 -0.2224
 2558SOL    HW1 7809   4.446   1.365   0.939  0.4818 -0.1860 -0.2132
 2558SOL    HW2 7810   4.310   1.306   0.906  0.7551 -0.9579  0.0484
 2559SOL     OW 7811   1.677   0.533   0.444 -0.5651  0.3764  0.1050
 2559SOL    HW1 7812   1.656   0.442   0.463 -1.3491  0.7718  1.2863
 2559SOL    HW2 7813   1.763   0.547   0.486 -0.0559 -0.0155 -0.7762
 2560SOL     OW 7814   0.480   4.728   1.620  0.4028 -0.6789  0.1114
 2560SOL    HW1 7815   0.552   4.688   1.571  0.1622 -1.9565  0.7724
 2560SOL    HW2 7816   0.430   4.654   1.655 -1.4389  0.1701 -0.5895
 2561SOL     OW 7817   2.969   4.244   3.169  0.3723  0.3234 -0.0987
 2561SOL    HW1 7818   3.013   4.325   3.146  0.6387 -0.2081 -1.6053
 2561SOL    HW2 7819   2.882   4.251   3.128  0.5566 -0.3155 -0.6174
 2562SOL     OW 7820   2.053   4.128   3.224  0.4222  0.0383 -0.6148
 2562SOL    HW1 7821   2.148   4.139   3.216  0.5528  0.8653  1.3965
 2562SOL    HW2 7822   2.031   4.058   3.164  2.7332 -2.0380  0.7913
 2563SOL     OW 7823   4.518   1.140   3.952 -0.1470 -0.2022 -0.3118
 2563SOL    HW1 7824   4.522   1.208   3.885  1.1172 -1.1626 -1.2679
 2563SOL    HW2 7825   4.609   1.122   3.973 -0.5065  0.2200  1.8800
 2564SOL     OW 7826   0.872   0.612   1.372  0.5262  0.8359  0.5692
 2564SOL    HW1 7827   0.959   0.653   1.377 -0.0357  2.1605  0.0593
 2564SOL    HW2 7828   0.878   0.535   1.428  1.6857  1.5632  1.4915
 2565SOL     OW 7829   4.150   0.411   1.873  0.2105  0.4018  0.5381
 2565SOL    HW1 7830   4.066   0.454   1.860  0.3890  0.7799  0.6082
 2565SOL    HW2 7831   4.214   0.483   1.869  0.6263 -0.0041 -0.5287
 2566SOL     OW 7832   1.265   3.865   3.305 -0.4024  0.0469 -0.3670
 2566SOL    HW1 7833   1.267   3.904   3.392  0.4790  1.4901 -0.9893
 2566SOL    HW2 7834   1.288   3.773   3.318 -1.7543 -0.1234  1.0747
 2567SOL     OW 7835   1.867   4.142   0.327  0.0091 -0.7006  0.1195
 2567SOL    HW1 7836   1.948   4.127   0.277 -1.6949 -1.2031 -2.7155
 2567SOL    HW2 7837   1.829   4.054   0.336 -0.0781 -0.5170  1.7637
 2568SOL     OW 7838   4.005   3.639   2.626  0.3756  0.2729 -0.2139
 2568SOL    HW1 7839   4.091   3.638   2.584  0.1505  1.1323 -0.7023
 2568SOL    HW2 7840   3.955   3.704   2.577 -0.7678 -0.6881 -0.3542
 2569SOL     OW 7841   0.821   0.212   0.790 -0.5271 -0.2718  0.7338
 2569SOL    HW1 7842   0.848   0.126   0.820  1.4956  0.7652  2.1481
 2569SOL    HW2 7843   0.861   0.222   0.704  1.4617  0.1914  1.6621
 2570SOL     OW 7844   2.664   2.966   4.525  0.1901 -0.2511  0.4836
 2570SOL    HW1 7845   2.595   3.022   4.490  0.4621 -1.9384 -3.2995
 2570SOL    HW2 7846   2.618   2.897   4.572 -0.5033  0.2047  0.4820
 2571SOL     OW 7847   1.873   4.731   1.074  0.0719 -0.3124  0.1844
 2571SOL    HW1 7848   1.934   4.754   1.004 -0.8038 -0.7056 -0.7201
 2571SOL    HW2 7849   1.859   4.813   1.122 -0.2785  0.2534 -0.8563
 2572SOL     OW 7850   1.576   2.310   3.043 -0.6495 -0.4624  0.1549
 2572SOL    HW1 7851   1.637   2.367   2.995 -1.3944  0.3732  0.1651
 2572SOL    HW2 7852   1.513   2.282   2.976  0.8744 -3.0227 -0.3243
 2573SOL     OW 7853   1.399   2.438   1.040 -0.2670  0.0152 -0.7655
 2573SOL    HW1 7854   1.475   2.457   0.984  0.3131 -2.0621 -0.7596
 2573SOL    HW2 7855   1.330   2.496   1.007  1.0277  1.2678 -1.3887
 2574SOL     OW 7856   2.187   3.225   0.471  0.1503 -0.1856  0.6581
 2574SOL    HW1 7857   2.212   3.155   0.531 -0.0920  0.0695  1.0634
 2574SOL    HW2 7858   2.215   3.194   0.385 -0.6125 -1.1156  0.7196
 2575SOL     OW 7859   2.283   3.789   4.844  0.2578  0.1247  0.5052
 2575SOL    HW1 7860   2.272   3.791   4.939 -0.4841  1.7931  0.4229
 2575SOL    HW2 7861   2.235   3.866   4.813  0.3263 -0.4921 -1.2436
 2576SOL     OW 7862   4.764   3.319   4.952  0.2976  0.4483 -0.2693
 2576SOL    HW1 7863   4.818   3.310   4.874  0.1342  2.1506 -0.6066
 2576SOL    HW2 7864   4.680   3.352   4.919 -0.1738  0.0508  0.5019
 2577SOL     OW 7865   2.540   0.257   0.893  0.1211 -0.2309 -0.5773
 2577SOL    HW1 7866   2.566   0.347   0.874  0.3283  0.0906  1.1356
 2577SOL    HW2 7867   2.622   0.214   0.918 -0.4255 -0.0466  1.6987
 2578SOL     OW 7868   0.805   4.827   0.236 -0.5348 -0.1596  0.1381
 2578SOL    HW1 7869   0.799   4.733   0.221  0.6029 -0.4983  1.5239
 2578SOL    HW2 7870   0.717   4.853   0.262 -0.4204 -1.2715  1.7787
 2579SOL     OW 7871   1.324   3.893   1.934 -0.1092 -0.3471 -0.2650
 2579SOL    HW1 7872   1.238   3.934   1.926 -0.4431 -0.8734  0.5082
 2579SOL    HW2 7873   1.318   3.814   1.879 -0.3251 -0.6968  0.2551
 2580SOL     OW 7874   0.157   0.639   3.078 -0.6408 -0.8562  0.1893
 2580SOL    HW1 7875   0.203   0.576   3.022  0.6236 -0.4915  0.7708
 2580SOL    HW2 7876   0.226   0.696   3.111 -1.5360 -0.2456  1.0603
 2581SOL     OW 7877   3.570   4.947   2.795 -0.1224 -0.4229 -0.7253
 2581SOL    HW1 7878   3.487   4.994   2.804  0.3213  0.3016 -0.2954
 2581SOL    HW2 7879   3.571   4.918   2.704 -0.6482 -0.0367 -0.8610
 2582SOL     OW 7880   1.041   4.490   3.346 -0.4887 -0.1142  0.4649
 2582SOL    HW1 7881   0.958   4.489   3.395 -1.1290 -0.2099 -0.5917
 2582SOL    HW2 7882   1.021   4.541   3.267  0.1833 -0.9736 -0.2716
 2583SOL     OW 7883   4.463   3.613   0.693  0.6291 -0.4903  0.2451
 2583SOL    HW1 7884   4.555   3.639   0.697  0.9002 -0.5051 -2.9781
 2583SOL    HW2 7885   4.465   3.517   0.696  0.4946 -0.4666  2.1008
 2584SOL     OW 7886   2.731   4.195   4.649 -0.1007 -0.0772 -0.1711
 2584SOL    HW1 7887   2.636   4.194   4.647 -0.1188  1.1425 -1.8308
 2584SOL    HW2 7888   2.754   4.152   4.732 -2.0781 -0.1214  0.3963
 2585SOL     OW 7889   4.073   4.166   0.777 -0.6677  0.2048 -0.3043
 2585SOL    HW1 7890   4.043   4.256   0.765 -0.4695  0.2283 -0.6481
 2585SOL    HW2 7891   4.062   4.149   0.871 -1.9461  0.1413 -0.4493
 2586SOL     OW 7892   3.698   2.124   2.808  0.9956 -0.6531  0.4873
 2586SOL    HW1 7893   3.703   2.028   2.807 -1.6780 -0.8616 -0.2763
 2586SOL    HW2 7894   3.738   2.150   2.725 -2.5037 -1.5504 -1.6833
 2587SOL     OW 7895   1.106   0.456   0.622  0.3748 -0.0320  0.2186
 2587SOL    HW1 7896   1.043   0.526   0.603 -0.9408 -0.7705  1.6398
 2587SOL    HW2 7897   1.103   0.400   0.545 -1.0842 -0.2866  0.4301
 2588SOL     OW 7898   0.485   4.278   0.905  0.6860  0.3995 -0.1421
 2588SOL    HW1 7899   0.551   4.240   0.962  1.1057  0.9929 -0.2182
 2588SOL    HW2 7900   0.513   4.255   0.816 -0.7350 -1.7623 -0.1075
 2589SOL     OW 7901   0.431   1.971   2.216  0.1766 -0.4498 -0.0748
 2589SOL    HW1 7902   0.406   1.893   2.265  0.3717 -0.8483 -0.6015
 2589SOL    HW2 7903   0.358   1.986   2.156 -0.4008  0.4743  0.8473
 2590SOL     OW 7904   3.469   2.660   1.898  0.1031 -0.3553 -0.9742
 2590SOL    HW1 7905   3.385   2.625   1.925 -0.9826  1.9098 -1.2158
 2590SOL    HW2 7906   3.508   2.591   1.845 -0.8814 -2.0435  0.3843
 2591SOL     OW 7907   4.984   4.031   1.569 -0.4530  0.0885 -0.2226
 2591SOL    HW1 7908   4.896   4.057   1.545 -0.1582  0.7466 -0.6142
 2591SOL    HW2 7909   4.976   3.939   1.594 -1.0904 -0.0947 -1.0704
 2592SOL     OW 7910   0.072   2.568   4.820  0.3962 -0.0696  1.0675
 2592SOL    HW1 7911   0.014   2.630   4.776  2.4344  0.8288 -0.5293
 2592SOL    HW2 7912   0.078   2.493   4.761  2.2774  0.6661  0.2430
 2593SOL     OW 7913   0.453   1.555   0.349  0.0884 -0.9107  0.2211
 2593SOL    HW1 7914   0.379   1.518   0.301 -3.3496  2.0135  2.7589
 2593SOL    HW2 7915   0.430   1.543   0.441  2.4442  0.7878  1.1151
 2594SOL     OW 7916   2.709   0.610   4.813 -0.1475 -0.0091  0.1200
 2594SOL    HW1 7917   2.752   0.639   4.894 -1.1050  0.3475  0.5216
 2594SOL    HW2 7918   2.707   0.515   4.820  0.1249 -0.0002  0.3354
 2595SOL     OW 7919   0.266   0.405   0.435 -1.0058  0.1529 -0.0688
 2595SOL    HW1 7920   0.327   0.339   0.400 -0.3346  1.1787 -0.8861
 2595SOL    HW2 7921   0.180   0.363   0.431 -0.4677 -1.0385  0.3803
 2596SOL     OW 7922   1.584   3.028   4.182 -0.3296  0.2425 -0.6895
 2596SOL    HW1 7923   1.648   2.988   4.240  0.3915  0.4733 -1.3027
 2596SOL    HW2 7924   1.560   3.110   4.224  0.3911  0.5369 -0.8325
 2597SOL     OW 7925   4.574   0.122   0.604  0.0526 -0.3529 -0.2006
 2597SOL    HW1 7926   4.493   0.173   0.596  0.3603 -0.0240 -1.4496
 2597SOL    HW2 7927   4.594   0.123   0.697 -1.9551 -1.3509  0.2744
 2598SOL     OW 7928   3.527   4.389   0.981 -0.6039  0.2579 -0.0582
 2598SOL    HW1 7929   3.461   4.410   0.915 -1.9521  1.6994  1.6158
 2598SOL    HW2 7930   3.515   4.296   0.998 -2.5544  0.5545  0.4725
 2599SOL     OW 7931   0.614   2.917   4.666 -0.2906 -0.4426  0.0072
 2599SOL    HW1 7932   0.667   2.986   4.627 -0.7734  0.5884  1.1400
 2599SOL    HW2 7933   0.526   2.932   4.632 -0.2427 -1.0618 -0.4335
 2600SOL     OW 7934   3.264   3.659   3.049  0.1761 -0.2792 -0.0948
 2600SOL    HW1 7935   3.343   3.605   3.059 -1.5549 -2.8547  0.7667
 2600SOL    HW2 7936   3.237   3.643   2.958  0.7524  0.8127 -0.4711
 2601SOL     OW 7937   3.576   0.260   4.270  0.0882  0.2861 -0.5221
 2601SOL    HW1 7938   3.603   0.257   4.362  0.2649  0.9911 -0.5477
 2601SOL    HW2 7939   3.659   0.258   4.221  0.1806  2.6662 -0.6016
 2602SOL     OW 7940   2.693   3.952   4.349 -0.2933  0.3801 -0.4279
 2602SOL    HW1 7941   2.657   3.919   4.431 -0.1141  1.2458  0.0059
 2602SOL    HW2 7942   2.752   4.022   4.375  0.5711 -0.0295 -1.2299
 2603SOL     OW 7943   3.266   3.540   0.391 -0.7413 -0.3112  0.9723
 2603SOL    HW1 7944   3.182   3.566   0.428 -0.3789  0.1523  1.4724
 2603SOL    HW2 7945   3.317   3.508   0.466 -0.4177 -0.4535  0.6947
 2604SOL     OW 7946   0.040   3.971   3.261  0.3250 -0.6289 -0.5061
 2604SOL    HW1 7947   0.095   4.047   3.276  1.1674 -1.2854 -0.2074
 2604SOL    HW2 7948   0.096   3.910   3.213 -0.7259 -0.5826 -1.8609
 2605SOL     OW 7949   3.492   2.297   4.530  0.4751  0.2727 -0.2159
 2605SOL    HW1 7950   3.465   2.208   4.508  0.2467  0.0871  0.7406
 2605SOL    HW2 7951   3.530   2.289   4.618  1.3074  0.9640 -0.5011
 2606SOL     OW 7952   3.599   1.374   1.722 -0.0292 -0.0537 -0.0745
 2606SOL    HW1 7953   3.530   1.376   1.656 -2.8833  0.1454  2.7080
 2606SOL    HW2 7954   3.573   1.305   1.782  3.0835 -1.0434  0.3254
 2607SOL     OW 7955   4.627   4.794   0.831 -0.3790  0.1313 -0.0783
 2607SOL    HW1 7956   4.543   4.802   0.787 -0.3776 -1.0534 -0.3418
 2607SOL    HW2 7957   4.609   4.820   0.922 -0.7678  0.9381 -0.3785
 2608SOL     OW 7958   0.339   3.637   0.876  0.4936  0.4871  0.1691
 2608SOL    HW1 7959   0.260   3.677   0.912  1.1195  1.0137  0.9898
 2608SOL    HW2 7960   0.389   3.711   0.841 -0.1048 -0.0125 -1.8432
 2609SOL     OW 7961   3.121   2.623   4.685  0.2320 -0.1019  0.1858
 2609SOL    HW1 7962   3.190   2.577   4.638 -1.5099 -2.4799 -0.2305
 2609SOL    HW2 7963   3.118   2.710   4.644  1.1804 -0.8771 -1.6219
 2610SOL     OW 7964   0.052   3.377   3.629 -0.8233  0.4434  0.2576
 2610SOL    HW1 7965   0.027   3.287   3.611  0.2230  0.0499  0.6557
 2610SOL    HW2 7966  -0.022   3.430   3.600 -1.2339 -0.5066 -0.4608
 2611SOL     OW 7967   3.735   4.810   3.276  0.3990  0.1643  0.0108
 2611SOL    HW1 7968   3.712   4.799   3.184  0.4635  0.1300 -0.0012
 2611SOL    HW2 7969   3.724   4.722   3.314  1.6366 -0.1076 -0.2421
 2612SOL     OW 7970   0.352   1.031   3.822 -0.2510  0.3433 -0.2999
 2612SOL    HW1 7971   0.365   1.079   3.740 -1.1867 -0.3106 -0.8597
 2612SOL    HW2 7972   0.271   1.066   3.858  0.4962  1.0917  0.7090
 2613SOL     OW 7973   2.766   2.008   3.809  0.3587 -0.0677  0.8221
 2613SOL    HW1 7974   2.708   1.992   3.735  1.2023 -0.2474  0.1795
 2613SOL    HW2 7975   2.708   2.038   3.879 -0.1827  2.7768 -0.7040
 2614SOL     OW 7976   4.666   1.895   0.989  0.0977  0.2765  0.4953
 2614SOL    HW1 7977   4.749   1.848   0.980  0.2420  0.3416  1.4682
 2614SOL    HW2 7978   4.660   1.917   1.082 -0.4265  1.3509  0.2219
 2615SOL     OW 7979   3.340   3.227   3.269  0.1821  0.2650  0.2299
 2615SOL    HW1 7980   3.293   3.289   3.325 -0.3041 -0.5568  0.7589
 2615SOL    HW2 7981   3.426   3.267   3.255  0.1292  0.7305  1.1467
 2616SOL     OW 7982   2.984   4.277   1.036  0.0095  0.7238  0.3440
 2616SOL    HW1 7983   2.900   4.260   0.993 -1.0899  1.2246  2.1817
 2616SOL    HW2 7984   3.029   4.337   0.978 -0.4954 -0.2500 -1.1154
 2617SOL     OW 7985   0.071   3.423   1.201 -0.1896  0.6401  0.1586
 2617SOL    HW1 7986   0.136   3.372   1.153 -0.5055  0.4131 -0.0318
 2617SOL    HW2 7987   0.006   3.448   1.135 -1.1503 -0.5147  0.6300
 2618SOL     OW 7988   3.837   1.857   2.525  0.4674 -0.2533  0.9389
 2618SOL    HW1 7989   3.928   1.827   2.525  1.0404  1.3617  0.9718
 2618SOL    HW2 7990   3.807   1.842   2.614  1.9200  2.4386  2.0219
 2619SOL     OW 7991   4.804   2.159   1.702  1.0797  0.0131 -0.0006
 2619SOL    HW1 7992   4.860   2.164   1.625 -0.5867  2.0346 -1.1985
 2619SOL    HW2 7993   4.795   2.249   1.732  1.1330 -0.6414  2.2055
 2620SOL     OW 7994   0.660   3.843   3.383 -0.4809 -0.0331 -0.5884
 2620SOL    HW1 7995   0.592   3.776   3.385  0.6286 -1.2370 -1.6311
 2620SOL    HW2 7996   0.728   3.810   3.443 -1.4942  2.0170  1.8987
 2621SOL     OW 7997   0.718   4.536   3.967 -0.1596  0.3097 -0.2490
 2621SOL    HW1 7998   0.708   4.628   3.944 -2.4689  0.3416  0.6511
 2621SOL    HW2 7999   0.642   4.493   3.930 -1.8939 -0.3202  3.5306
 2622SOL     OW 8000   4.550   3.792   3.151 -0.4309 -0.0946  0.5929
 2622SOL    HW1 8001   4.636   3.751   3.159 -0.6888 -0.4857  1.5378
 2622SOL    HW2 8002   4.558   3.852   3.077  1.5655  2.2064  2.5514
 2623SOL     OW 8003   0.089   0.776   1.756  0.0368  0.5204  0.4758
 2623SOL    HW1 8004   0.016   0.726   1.717 -0.2774  1.0900  0.3225
 2623SOL    HW2 8005   0.050   0.820   1.831 -0.0194  1.6143 -0.1839
 2624SOL     OW 8006   1.598   2.716   0.697 -0.0742  0.4006  0.0657
 2624SOL    HW1 8007   1.563   2.801   0.669  2.0606  1.7781  1.2880
 2624SOL    HW2 8008   1.594   2.719   0.792  0.7058 -0.5822  0.1423
 2625SOL     OW 8009   2.182   2.238   1.445 -0.6515 -0.5153  0.0378
 2625SOL    HW1 8010   2.139   2.254   1.361  1.1247 -0.0408 -0.8199
 2625SOL    HW2 8011   2.252   2.303   1.450  0.5074 -1.7736  0.9899
 2626SOL     OW 8012   4.013   0.943   2.964 -0.3217  0.3691  0.4221
 2626SOL    HW1 8013   4.000   1.034   2.988  0.9631  0.3240  1.3837
 2626SOL    HW2 8014   3.928   0.901   2.981 -1.1701  1.4992 -0.7946
 2627SOL     OW 8015   2.154   1.395   3.349 -0.1758 -0.0737 -0.1234
 2627SOL    HW1 8016   2.125   1.384   3.258  2.2914 -1.0080 -0.8856
 2627SOL    HW2 8017   2.084   1.356   3.401 -1.4247  0.0314 -1.6336
 2628SOL     OW 8018   0.209   4.675   3.067 -0.1323 -0.0754  0.3299
 2628SOL    HW1 8019   0.293   4.708   3.036 -0.0281 -0.2611  0.4097
 2628SOL    HW2 8020   0.193   4.723   3.148 -0.5682  0.6552 -0.1772
 2629SOL     OW 8021   1.357   1.055   2.402  0.0721  0.1504  0.3904
 2629SOL    HW1 8022   1.420   1.112   2.357 -0.0667 -1.2940 -1.7308
 2629SOL    HW2 8023   1.314   1.114   2.465  1.8834  1.7106  0.2883
 2630SOL     OW 8024   1.113   1.877   2.631 -0.4894  0.1089  0.0121
 2630SOL    HW1 8025   1.095   1.820   2.706 -0.9766 -0.3240 -0.4194
 2630SOL    HW2 8026   1.126   1.817   2.558 -1.0168  0.5499 -0.4544
 2631SOL     OW 8027   0.767   0.511   3.989  0.4641  0.0802  0.4693
 2631SOL    HW1 8028   0.836   0.524   3.923  2.2199 -0.3944  2.1283
 2631SOL    HW2 8029   0.812   0.473   4.064 -1.4947  0.4555  1.9204
 2632SOL     OW 8030   1.742   3.896   4.589 -0.3298  0.4128 -0.1853
 2632SOL    HW1 8031   1.653   3.872   4.563  0.1032  0.4191 -1.7780
 2632SOL    HW2 8032   1.788   3.911   4.507  0.7440  1.9156  0.6360
 2633SOL     OW 8033   2.744   4.045   0.726 -0.5393  0.1219  0.2748
 2633SOL    HW1 8034   2.810   3.976   0.735  1.1574  1.3966 -1.4118
 2633SOL    HW2 8035   2.664   3.999   0.701  0.8885 -1.1908 -2.2177
 2634SOL     OW 8036   1.587   4.236   4.931 -0.8161  0.5217 -0.6691
 2634SOL    HW1 8037   1.569   4.330   4.920  0.1054  0.7670 -0.1811
 2634SOL    HW2 8038   1.606   4.205   4.842 -1.5601  0.6902 -0.8978
 2635SOL     OW 8039   0.997   3.594   4.215 -0.4309 -0.0066 -0.4264
 2635SOL    HW1 8040   0.979   3.573   4.124  0.2575 -0.2302 -0.5213
 2635SOL    HW2 8041   0.955   3.525   4.265 -0.3511 -0.1852 -0.6050
 2636SOL     OW 8042   3.790   4.739   2.280 -0.5606 -0.0548 -0.2107
 2636SOL    HW1 8043   3.807   4.664   2.223 -2.7545 -0.2791 -0.6635
 2636SOL    HW2 8044   3.763   4.700   2.363 -1.3876  0.2222 -0.3416
 2637SOL     OW 8045   2.883   1.194   2.280  0.0727 -0.0332 -0.2105
 2637SOL    HW1 8046   2.874   1.132   2.352 -0.3764  1.9116  1.5072
 2637SOL    HW2 8047   2.970   1.232   2.292 -0.4518  1.1210  0.0165
 2638SOL     OW 8048   4.962   0.916   4.118 -0.2810  0.0437  0.0004
 2638SOL    HW1 8049   4.991   0.950   4.202  2.3326  0.0116 -0.7967
 2638SOL    HW2 8050   5.039   0.871   4.082 -0.0911  2.9209 -3.8495
 2639SOL     OW 8051   2.503   2.748   1.943  0.0802  0.3600  0.5803
 2639SOL    HW1 8052   2.558   2.687   1.993 -0.9418  0.6034  2.0602
 2639SOL    HW2 8053   2.424   2.697   1.923  1.0975 -0.2857 -2.3121
 2640SOL     OW 8054   2.709   1.877   0.857 -0.4783 -0.0352 -0.6172
 2640SOL    HW1 8055   2.765   1.811   0.898 -1.3986 -0.1861  0.4485
 2640SOL    HW2 8056   2.666   1.830   0.785 -0.3999 -0.3370 -0.4700
 2641SOL     OW 8057   0.546   3.156   1.790  0.2080 -0.1932 -0.4047
 2641SOL    HW1 8058   0.554   3.144   1.885  1.1009 -0.0531 -0.4519
 2641SOL    HW2 8059   0.625   3.114   1.754  1.6067  2.5601 -0.8288
 2642SOL     OW 8060   1.959   2.732   4.164  0.5783 -0.0020  0.3569
 2642SOL    HW1 8061   1.878   2.706   4.121 -0.4350 -1.0467  2.7421
 2642SOL    HW2 8062   2.027   2.680   4.121 -0.3584 -0.8900 -0.0694
 2643SOL     OW 8063   1.527   0.312   3.772 -0.3121  0.4877 -0.3887
 2643SOL    HW1 8064   1.516   0.218   3.785 -0.1131  0.5595  0.3184
 2643SOL    HW2 8065   1.613   0.332   3.807 -1.2194  1.2984  1.5525
 2644SOL     OW 8066   3.128   1.576   2.315 -0.3187  0.1222  0.0724
 2644SOL    HW1 8067   3.222   1.590   2.327 -0.2161  0.0242 -0.5536
 2644SOL    HW2 8068   3.091   1.581   2.403  0.0525  1.8143  0.1717
 2645SOL     OW 8069   4.672   4.259   3.402 -0.1596  1.2287  0.0636
 2645SOL    HW1 8070   4.726   4.180   3.415 -0.5574  0.3568 -2.9070
 2645SOL    HW2 8071   4.588   4.237   3.441 -0.0666  0.4167 -0.1724
 2646SOL     OW 8072   2.019   3.805   3.863 -0.5904  0.5208  0.3134
 2646SOL    HW1 8073   1.952   3.847   3.809 -1.8178  0.7710  1.9389
 2646SOL    HW2 8074   2.043   3.872   3.927 -0.2775 -0.2431  1.0137
 2647SOL     OW 8075   3.156   1.283   4.452 -0.3832 -0.4573  0.1932
 2647SOL    HW1 8076   3.191   1.312   4.368 -1.0578 -0.2734 -0.0342
 2647SOL    HW2 8077   3.061   1.297   4.445 -0.7327 -2.4443  0.1525
 2648SOL     OW 8078   1.834   3.950   2.595 -0.0418  0.9614 -0.5596
 2648SOL    HW1 8079   1.853   3.882   2.659 -0.9869  1.7995  0.6511
 2648SOL    HW2 8080   1.898   3.936   2.525  0.5712 -0.3889  0.2411
 2649SOL     OW 8081   0.451   4.956   1.173 -0.5170 -0.2839 -0.8643
 2649SOL    HW1 8082   0.430   4.914   1.089  1.1426 -0.1679 -1.3697
 2649SOL    HW2 8083   0.449   4.884   1.237 -3.6542 -0.0760 -0.5931
 2650SOL     OW 8084   4.897   1.644   1.503 -0.0749 -0.0495 -0.6837
 2650SOL    HW1 8085   4.845   1.603   1.434 -0.2734 -0.3772 -0.3386
 2650SOL    HW2 8086   4.929   1.725   1.464  1.3319 -1.0893 -1.8020
 2651SOL     OW 8087   0.902   2.977   0.729 -0.1658  0.3449 -0.0305
 2651SOL    HW1 8088   0.997   2.979   0.720 -0.2537 -0.7745 -1.4818
 2651SOL    HW2 8089   0.871   3.046   0.670 -0.2716  0.6730  0.4014
 2652SOL     OW 8090   1.101   3.286   4.829  0.1164  0.0992 -0.4520
 2652SOL    HW1 8091   1.186   3.276   4.787  1.1175  0.6573  1.3628
 2652SOL    HW2 8092   1.083   3.200   4.867 -0.0467  0.0447 -0.6467
 2653SOL     OW 8093   4.206   4.112   3.367  0.3876  0.0381 -0.5948
 2653SOL    HW1 8094   4.261   4.155   3.433  1.0105 -1.5844 -0.0012
 2653SOL    HW2 8095   4.202   4.175   3.295  1.7634  0.8391 -0.0184
 2654SOL     OW 8096   1.978   4.911   4.403 -0.2091 -0.4765 -0.3593
 2654SOL    HW1 8097   2.009   4.820   4.409  2.1684  0.2363 -0.7808
 2654SOL    HW2 8098   2.008   4.951   4.485 -0.7354  0.0662 -0.4334
 2655SOL     OW 8099   4.579   3.658   4.229 -0.1709 -0.3971 -0.3090
 2655SOL    HW1 8100   4.549   3.730   4.284  3.4660  0.0070  1.4686
 2655SOL    HW2 8101   4.596   3.698   4.143 -3.2267 -0.4421 -1.0540
 2656SOL     OW 8102   2.445   2.504   1.032  0.0869  0.1698  0.8669
 2656SOL    HW1 8103   2.362   2.537   0.997  0.8673  1.6236  0.3254
 2656SOL    HW2 8104   2.469   2.432   0.973 -1.1622 -0.8379  1.5116
 2657SOL     OW 8105   3.023   0.907   3.896  0.7573 -0.0997  0.5397
 2657SOL    HW1 8106   2.949   0.855   3.927  0.1557  0.4975  0.1479
 2657SOL    HW2 8107   3.041   0.968   3.967  0.9944 -0.3653  0.7089
 2658SOL     OW 8108   1.033   1.719   1.983  0.7768  0.1057 -0.0132
 2658SOL    HW1 8109   0.945   1.682   1.990  0.4555  0.9582  0.6327
 2658SOL    HW2 8110   1.026   1.784   1.914  1.3267 -0.9643 -1.1082
 2659SOL     OW 8111   4.904   3.245   1.352  0.3382 -0.3451 -0.4650
 2659SOL    HW1 8112   4.947   3.181   1.410 -0.8394 -0.5431  0.2348
 2659SOL    HW2 8113   4.974   3.280   1.298  1.7282  0.7667  1.9383
 2660SOL     OW 8114   0.046   1.108   1.013  0.5109  0.0663 -0.0531
 2660SOL    HW1 8115  -0.029   1.061   0.976 -0.7457  1.4970  0.5464
 2660SOL    HW2 8116   0.052   1.188   0.962  1.0109  0.4216  0.5428
 2661SOL     OW 8117   2.946   1.890   1.247  0.5421 -0.2936  0.4138
 2661SOL    HW1 8118   3.013   1.824   1.269 -0.5078 -0.5528  3.3044
 2661SOL    HW2 8119   2.879   1.879   1.314 -1.9741  0.6345 -1.7992
 2662SOL     OW 8120   0.604   4.451   3.649  0.1837  0.2114 -0.1639
 2662SOL    HW1 8121   0.528   4.507   3.665  0.3788  0.0460  1.4736
 2662SOL    HW2 8122   0.570   4.362   3.650  0.2074  0.1866 -0.7576
 2663SOL     OW 8123   3.639   3.527   0.375  0.0110  0.3776 -0.0848
 2663SOL    HW1 8124   3.592   3.445   0.362 -0.1133  0.5645 -0.8715
 2663SOL    HW2 8125   3.653   3.532   0.469  1.4184 -1.3386 -0.1373
 2664SOL     OW 8126   2.475   2.876   3.952 -0.5152  0.5596  0.3492
 2664SOL    HW1 8127   2.394   2.829   3.974 -0.1872 -0.6604 -0.9480
 2664SOL    HW2 8128   2.507   2.834   3.873  0.8004  1.7860  0.1857
 2665SOL     OW 8129   1.294   4.770   3.093 -0.2527  0.1445 -0.4228
 2665SOL    HW1 8130   1.315   4.688   3.137 -1.5755  0.5092  0.9828
 2665SOL    HW2 8131   1.245   4.743   3.015  0.2514 -0.4428 -0.5407
 2666SOL     OW 8132   3.182   1.124   3.424 -0.4134 -0.2582 -0.2263
 2666SOL    HW1 8133   3.107   1.179   3.448 -1.3796 -1.6201 -0.0039
 2666SOL    HW2 8134   3.255   1.185   3.416 -0.8944  0.7608  2.3533
 2667SOL     OW 8135   1.590   3.680   3.287  0.0840 -0.0243 -0.5082
 2667SOL    HW1 8136   1.509   3.687   3.237 -0.7930  1.5759  1.0214
 2667SOL    HW2 8137   1.658   3.665   3.222 -1.2381  0.1718 -1.9783
 2668SOL     OW 8138   4.646   1.015   0.397 -0.2966 -0.4998  0.0825
 2668SOL    HW1 8139   4.720   0.982   0.448  0.9392  1.4266 -0.3718
 2668SOL    HW2 8140   4.637   1.106   0.423 -0.8547  0.0030 -1.7228
 2669SOL     OW 8141   1.214   3.844   0.112  0.0281 -0.4017 -0.0338
 2669SOL    HW1 8142   1.213   3.833   0.017  0.3603 -0.4525 -0.0322
 2669SOL    HW2 8143   1.284   3.908   0.127  0.9876 -1.4817  0.2876
 2670SOL     OW 8144   0.013   3.085   3.533 -0.0745 -0.1534 -0.6886
 2670SOL    HW1 8145   0.078   3.078   3.462  0.2615 -0.3726 -0.3592
 2670SOL    HW2 8146  -0.030   3.000   3.534  1.6696 -1.0679  1.0520
 2671SOL     OW 8147   4.912   3.555   5.003 -0.2033 -0.1598  0.0354
 2671SOL    HW1 8148   4.854   3.478   4.998  1.9560 -1.8521 -0.6092
 2671SOL    HW2 8149   4.952   3.560   4.916  1.7260 -0.0138  0.8899
 2672SOL     OW 8150   3.860   1.454   1.562 -0.2933 -0.5698 -0.0468
 2672SOL    HW1 8151   3.826   1.428   1.475  1.7006 -0.9479 -0.7541
 2672SOL    HW2 8152   3.862   1.373   1.612 -0.8635 -0.4604  0.1598
 2673SOL     OW 8153   3.937   0.213   1.996 -0.1122 -0.0090  0.1225
 2673SOL    HW1 8154   3.853   0.232   1.954 -0.0887  0.4931  0.2998
 2673SOL    HW2 8155   3.989   0.292   1.982 -0.1587  0.2329  1.2357
 2674SOL     OW 8156   0.920   4.403   2.067  0.7046 -0.4736 -0.4074
 2674SOL    HW1 8157   0.874   4.419   1.984 -0.0577 -1.3121 -0.1707
 2674SOL    HW2 8158   0.935   4.490   2.103  0.3806 -0.1279 -1.0793
 2675SOL     OW 8159   2.472   4.194   4.727  0.1825  0.0479 -0.4612
 2675SOL    HW1 8160   2.432   4.155   4.649  0.4045  1.1876 -1.1684
 2675SOL    HW2 8161   2.428   4.278   4.737 -0.9451 -0.7096  1.5721
 2676SOL     OW 8162   0.550   1.741   1.820 -0.0869  0.0644 -0.3205
 2676SOL    HW1 8163   0.601   1.674   1.774  0.5343  0.8022 -0.7406
 2676SOL    HW2 8164   0.501   1.786   1.751 -1.9336 -1.1072  0.1544
 2677SOL     OW 8165   1.425   2.100   0.817  0.1450 -0.1400 -0.1635
 2677SOL    HW1 8166   1.476   2.141   0.887 -0.6175  0.4806  0.0461
 2677SOL    HW2 8167   1.355   2.054   0.862  1.2021 -2.0418 -0.3714
 2678SOL     OW 8168   2.325   0.347   3.002  0.2080  0.0018  0.0108
 2678SOL    HW1 8169   2.322   0.437   3.035  2.0623  0.3452 -0.6611
 2678SOL    HW2 8170   2.233   0.319   2.999 -0.2498  0.9616  2.6380
 2679SOL     OW 8171   2.798   3.258   2.498 -0.2997  0.1053  0.5655
 2679SOL    HW1 8172   2.800   3.239   2.405 -1.3461 -1.4106  0.8153
 2679SOL    HW2 8173   2.830   3.178   2.540 -3.1853 -0.6021  1.6111
 2680SOL     OW 8174   1.160   3.481   0.046  0.5211 -0.3855  0.1411
 2680SOL    HW1 8175   1.135   3.470  -0.046  2.6536 -0.2948 -0.5165
 2680SOL    HW2 8176   1.125   3.404   0.090  0.8703 -1.2928 -1.0998
 2681SOL     OW 8177   1.073   1.575   4.454 -0.0884 -1.4119  0.8574
 2681SOL    HW1 8178   0.992   1.624   4.466  0.2435  0.8247 -3.6538
 2681SOL    HW2 8179   1.142   1.633   4.487 -0.1039 -1.8683  1.7027
 2682SOL     OW 8180   4.669   2.923   4.605  0.1579 -0.6133 -0.0054
 2682SOL    HW1 8181   4.685   2.853   4.669 -0.6491 -0.4131  0.4277
 2682SOL    HW2 8182   4.732   2.905   4.535  0.5782 -1.2481  0.5119
 2683SOL     OW 8183   2.787   2.274   1.045 -0.1219  0.5851  0.2609
 2683SOL    HW1 8184   2.866   2.221   1.047 -0.3169  0.2868  2.5321
 2683SOL    HW2 8185   2.756   2.267   0.955  1.4521 -0.7481 -0.2279
 2684SOL     OW 8186   0.499   2.780   2.885  0.3743 -0.1903 -0.3070
 2684SOL    HW1 8187   0.556   2.707   2.862  1.1119  0.4024 -0.3983
 2684SOL    HW2 8188   0.548   2.858   2.858  0.3399  0.4195  1.2861
 2685SOL     OW 8189   2.197   4.810   1.754  0.0088 -0.1487 -0.3183
 2685SOL    HW1 8190   2.277   4.773   1.717  0.4348 -0.1334  0.5625
 2685SOL    HW2 8191   2.194   4.776   1.844 -0.2764  0.8990  0.0810
 2686SOL     OW 8192   3.132   1.327   2.234 -0.5089  0.4634  0.4477
 2686SOL    HW1 8193   3.213   1.313   2.284 -0.0003 -1.0462 -0.6929
 2686SOL    HW2 8194   3.111   1.420   2.246  2.8248  1.6061 -1.2189
 2687SOL     OW 8195   3.169   3.826   3.254 -0.7271 -0.2072 -0.4438
 2687SOL    HW1 8196   3.192   3.915   3.227 -0.8968  0.2286  0.7769
 2687SOL    HW2 8197   3.198   3.770   3.182  0.9594  0.6664 -0.4882
 2688SOL     OW 8198   3.563   0.361   0.304  0.1584 -0.7234  0.4472
 2688SOL    HW1 8199   3.609   0.435   0.265 -2.4011  0.9400  0.3219
 2688SOL    HW2 8200   3.618   0.333   0.377  1.0794  1.5423  0.6955
 2689SOL     OW 8201   3.765   4.364   0.634 -1.0053 -0.0714 -0.6442
 2689SOL    HW1 8202   3.783   4.275   0.603 -0.9011 -0.5869  0.7813
 2689SOL    HW2 8203   3.845   4.413   0.615 -1.2913 -0.1092 -2.0017
 2690SOL     OW 8204   0.944   2.245   2.967 -0.0439  0.1274  0.0887
 2690SOL    HW1 8205   0.962   2.305   3.039  0.1423 -0.4967  0.5745
 2690SOL    HW2 8206   0.869   2.193   2.997  1.1585 -1.3800  0.6405
 2691SOL     OW 8207   0.600   2.044   0.951  0.6718 -0.1857 -0.1747
 2691SOL    HW1 8208   0.538   2.115   0.935  1.0108  0.0153 -0.5943
 2691SOL    HW2 8209   0.546   1.974   0.989  0.4234  0.4709  0.7198
 2692SOL     OW 8210   3.076   4.772   4.077 -0.5090 -0.2429 -0.0611
 2692SOL    HW1 8211   3.126   4.808   4.003  0.0201  1.7236  1.1710
 2692SOL    HW2 8212   3.127   4.796   4.154 -1.7798 -0.9708  1.0430
 2693SOL     OW 8213   2.127   1.643   1.711  0.8223  0.8057 -0.1176
 2693SOL    HW1 8214   2.128   1.615   1.620 -0.3498  0.7603 -0.1321
 2693SOL    HW2 8215   2.167   1.570   1.758  1.8298  1.0163 -0.6375
 2694SOL     OW 8216   1.961   0.004   4.070  0.2490  0.3519  0.5404
 2694SOL    HW1 8217   2.011   0.086   4.074  1.3109  0.1892 -3.9236
 2694SOL    HW2 8218   2.027  -0.063   4.052 -0.9063 -1.0981  1.4816
 2695SOL     OW 8219   0.403   2.751   0.281  0.2028  0.1438  0.0649
 2695SOL    HW1 8220   0.350   2.812   0.229  0.4264 -1.1185 -1.7383
 2695SOL    HW2 8221   0.385   2.665   0.244  2.0797 -0.5535  0.6244
 2696SOL     OW 8222   3.418   4.398   1.630 -0.1963 -0.7738 -0.0559
 2696SOL    HW1 8223   3.506   4.432   1.613  0.0681 -1.8744 -1.0472
 2696SOL    HW2 8224   3.371   4.408   1.547 -0.7630 -0.8884  0.2431
 2697SOL     OW 8225   3.741   0.132   2.214 -0.1728  0.3534  0.0141
 2697SOL    HW1 8226   3.751   0.208   2.271  0.8442 -0.3395  0.7882
 2697SOL    HW2 8227   3.767   0.164   2.127  1.5495  0.6025  0.5667
 2698SOL     OW 8228   3.680   1.756   3.585 -0.5199  0.0862  0.2692
 2698SOL    HW1 8229   3.693   1.766   3.679 -1.9476 -1.0214  0.6119
 2698SOL    HW2 8230   3.622   1.829   3.561  1.1990  1.4016 -0.1264
 2699SOL     OW 8231   4.388   1.850   2.345  0.3933  0.9813  0.7671
 2699SOL    HW1 8232   4.353   1.770   2.307 -1.3363  2.7702 -1.6875
 2699SOL    HW2 8233   4.425   1.823   2.429 -0.7181 -2.2297  0.3262
 2700SOL     OW 8234   1.049   1.758   1.358  0.1386 -0.0574 -0.3583
 2700SOL    HW1 8235   1.129   1.779   1.311  0.1010  0.0638 -0.3689
 2700SOL    HW2 8236   1.074   1.690   1.420 -0.0234 -0.9322 -1.2392
 2701SOL     OW 8237   0.660   0.402   4.838 -0.0760  0.0085  0.4123
 2701SOL    HW1 8238   0.660   0.322   4.889 -2.3776  0.4197  1.1687
 2701SOL    HW2 8239   0.730   0.455   4.876  0.6975 -1.1627  0.6553
 2702SOL     OW 8240   1.786   2.321   0.474  0.3250 -0.5578 -0.4790
 2702SOL    HW1 8241   1.763   2.412   0.454  0.6557 -0.1281  0.9902
 2702SOL    HW2 8242   1.706   2.283   0.509  0.8035 -0.1173  1.1693
 2703SOL     OW 8243   3.180   1.051   1.744  0.3461 -0.4341 -0.1472
 2703SOL    HW1 8244   3.199   1.119   1.808  0.7335 -1.0639  0.4080
 2703SOL    HW2 8245   3.119   1.093   1.682 -0.1623  0.1206  0.7146
 2704SOL     OW 8246   4.022   4.634   1.172 -0.0906 -0.0436  0.3743
 2704SOL    HW1 8247   4.117   4.630   1.184  0.0942  1.3177 -0.4329
 2704SOL    HW2 8248   3.995   4.543   1.160  1.4387 -0.2972 -1.6337
 2705SOL     OW 8249   1.234   4.627   2.172 -0.2679 -0.5563  0.0238
 2705SOL    HW1 8250   1.322   4.591   2.173  0.3615  0.9474  0.2658
 2705SOL    HW2 8251   1.189   4.582   2.244  1.1084  0.5660  1.6605
 2706SOL     OW 8252   0.503   3.598   3.332  0.0468  0.5812  0.8850
 2706SOL    HW1 8253   0.486   3.606   3.426  1.5978 -0.3629  1.2972
 2706SOL    HW2 8254   0.467   3.512   3.309 -0.2166  0.7554  0.6522
 2707SOL     OW 8255   1.663   3.379   2.454 -0.5131 -0.1103  0.3922
 2707SOL    HW1 8256   1.621   3.303   2.414 -1.5431  0.3993  0.4780
 2707SOL    HW2 8257   1.629   3.380   2.544  1.4831 -1.0329  1.2231
 2708SOL     OW 8258   1.324   0.325   1.077  0.0784  0.1138 -0.2054
 2708SOL    HW1 8259   1.294   0.289   0.993 -0.5079  0.7255 -0.2598
 2708SOL    HW2 8260   1.244   0.351   1.122  0.3235 -1.0388  0.9406
 2709SOL     OW 8261   0.759   0.144   2.624 -0.2867 -0.4251  0.3530
 2709SOL    HW1 8262   0.696   0.217   2.620 -1.7566 -1.7119 -2.0037
 2709SOL    HW2 8263   0.704   0.065   2.618  1.4995 -1.6212 -1.3755
 2710SOL     OW 8264   1.615   4.456   4.449 -0.2687  0.1713 -0.5832
 2710SOL    HW1 8265   1.520   4.460   4.461 -0.1227 -0.0578  0.7061
 2710SOL    HW2 8266   1.626   4.448   4.354 -1.4801  1.4276 -0.8605
 2711SOL     OW 8267   3.302   2.850   3.496 -0.3713 -0.1140 -0.0618
 2711SOL    HW1 8268   3.228   2.895   3.454  0.5876  0.7237 -0.8883
 2711SOL    HW2 8269   3.275   2.841   3.588 -1.4144  0.3509 -0.3059
 2712SOL     OW 8270   3.629   2.956   3.326  0.0551  0.2777  0.5128
 2712SOL    HW1 8271   3.543   2.935   3.292 -0.0561  0.5864  0.5943
 2712SOL    HW2 8272   3.685   2.962   3.249  0.3144 -1.2614  0.5494
 2713SOL     OW 8273   0.478   3.411   4.214  0.1664 -0.1766 -0.2651
 2713SOL    HW1 8274   0.551   3.427   4.154 -0.9134  0.4794 -1.4774
 2713SOL    HW2 8275   0.402   3.404   4.156 -0.8565  0.0060  1.0175
 2714SOL     OW 8276   3.258   2.369   3.554  0.5262  0.6937 -0.1170
 2714SOL    HW1 8277   3.305   2.286   3.557 -0.6478  0.0299  0.4130
 2714SOL    HW2 8278   3.197   2.365   3.627 -1.3862  0.8943 -1.6268
 2715SOL     OW 8279   0.259   4.930   0.155 -0.9534 -0.5223  0.6351
 2715SOL    HW1 8280   0.237   4.867   0.224 -1.0638  0.2572  1.3205
 2715SOL    HW2 8281   0.182   4.986   0.148 -0.7295 -0.2571  0.2512
 2716SOL     OW 8282   2.925   3.921   3.321 -0.0803 -0.1895  0.0327
 2716SOL    HW1 8283   2.930   3.954   3.410  1.9447  1.8602 -0.7357
 2716SOL    HW2 8284   3.002   3.865   3.312 -0.5917 -0.8656 -0.2975
 2717SOL     OW 8285   0.760   0.035   3.156  0.4701  0.2372  0.2527
 2717SOL    HW1 8286   0.855   0.041   3.152  0.4793 -0.2918 -0.5851
 2717SOL    HW2 8287   0.729   0.095   3.088  0.2928 -1.4012 -1.1656
 2718SOL     OW 8288   0.668   1.507   4.865 -0.7202  0.0632 -0.1532
 2718SOL    HW1 8289   0.577   1.477   4.867 -0.1393 -1.9022 -0.9684
 2718SOL    HW2 8290   0.710   1.460   4.938  0.0261 -0.4475 -0.8965
 2719SOL     OW 8291   0.467   2.889   0.666  0.3059  0.0385  0.3840
 2719SOL    HW1 8292   0.402   2.950   0.700 -0.7037 -0.5123 -0.4908
 2719SOL    HW2 8293   0.466   2.816   0.728 -1.5334 -0.9671 -0.7337
 2720SOL     OW 8294   0.311   0.961   2.758 -0.2058  0.0506  0.5273
 2720SOL    HW1 8295   0.243   1.028   2.759  1.8626  2.3215 -0.1859
 2720SOL    HW2 8296   0.293   0.909   2.680 -1.8152 -0.2320  1.0525
 2721SOL     OW 8297   0.642   1.295   1.342  0.2684  0.6760 -0.3858
 2721SOL    HW1 8298   0.561   1.268   1.386  1.2272  0.3776  1.3140
 2721SOL    HW2 8299   0.649   1.236   1.267 -1.1701  0.8429 -0.6830
 2722SOL     OW 8300   3.002   3.689   2.380  0.3824 -0.0328 -0.6219
 2722SOL    HW1 8301   2.959   3.774   2.392 -0.4437 -0.6881  1.3819
 2722SOL    HW2 8302   3.090   3.703   2.414  0.8437  0.4583 -1.9215
 2723SOL     OW 8303   0.145   2.864   0.925  0.0640  0.2785  0.0668
 2723SOL    HW1 8304   0.087   2.806   0.875 -1.3951  1.7278 -0.0153
 2723SOL    HW2 8305   0.184   2.921   0.859 -1.0920  1.5340  0.4158
 2724SOL     OW 8306   2.952   0.449   1.062 -0.3651 -0.3103 -0.0062
 2724SOL    HW1 8307   2.889   0.520   1.052 -0.5982 -0.6845 -1.6193
 2724SOL    HW2 8308   3.026   0.474   1.006 -0.3975 -1.2492 -0.4941
 2725SOL     OW 8309   4.548   0.094   4.574 -0.0506  0.0237 -0.0805
 2725SOL    HW1 8310   4.483   0.023   4.583 -1.2809  1.1024 -0.1619
 2725SOL    HW2 8311   4.511   0.151   4.507  0.1448  1.5512  1.0586
 2726SOL     OW 8312   1.459   1.683   2.011  0.0857  0.4157  0.2292
 2726SOL    HW1 8313   1.553   1.664   2.011  0.1820  0.8267  1.1043
 2726SOL    HW2 8314   1.418   1.599   2.033  0.3284  0.4975  1.0328
 2727SOL     OW 8315   1.022   3.839   0.485 -0.3107 -0.0935  0.1809
 2727SOL    HW1 8316   1.068   3.799   0.558 -1.1129 -1.7689 -0.1681
 2727SOL    HW2 8317   1.035   3.779   0.412  0.5631  1.5886 -1.1245
 2728SOL     OW 8318   1.559   0.067   2.978 -0.0421  0.4405  0.1071
 2728SOL    HW1 8319   1.504   0.104   2.908  0.0647  0.9274  0.2787
 2728SOL    HW2 8320   1.512  -0.011   3.006 -0.7200  0.9273  0.3479
 2729SOL     OW 8321   2.223   1.921   2.813 -0.3601 -0.2425  0.1486
 2729SOL    HW1 8322   2.275   1.845   2.838  0.0966  0.1025  0.2667
 2729SOL    HW2 8323   2.253   1.942   2.724 -1.7678 -1.2878 -0.5921
 2730SOL     OW 8324   0.059   1.311   4.070  0.4502  1.0456 -0.5065
 2730SOL    HW1 8325  -0.009   1.275   4.126  0.0076  1.5167 -0.7368
 2730SOL    HW2 8326   0.034   1.284   3.981  0.6690  1.0474 -0.5699
 2731SOL     OW 8327   4.134   2.799   2.244  0.3134  0.0327 -0.0243
 2731SOL    HW1 8328   4.119   2.705   2.229  0.4749 -0.1285  0.7766
 2731SOL    HW2 8329   4.228   2.811   2.230  0.8365 -0.4831  2.5133
 2732SOL     OW 8330   3.851   1.838   1.895  0.0831  0.1073  0.4366
 2732SOL    HW1 8331   3.778   1.883   1.853  0.9221  0.4892 -0.6399
 2732SOL    HW2 8332   3.843   1.862   1.988 -0.9076  0.4771  0.2689
 2733SOL     OW 8333   1.215   0.568   3.363 -0.5620  0.0970  0.5808
 2733SOL    HW1 8334   1.222   0.661   3.340 -0.7242  0.5540  2.2269
 2733SOL    HW2 8335   1.133   0.562   3.412 -0.8050 -1.0273  0.0467
 2734SOL     OW 8336   4.490   1.954   4.210 -0.0068  0.0439 -0.3692
 2734SOL    HW1 8337   4.424   1.893   4.176  0.2995 -0.6225  0.1900
 2734SOL    HW2 8338   4.439   2.027   4.245 -0.4845 -0.6211  0.3618
 2735SOL     OW 8339   4.215   2.203   3.721 -0.4548 -0.2086  0.3667
 2735SOL    HW1 8340   4.272   2.215   3.797 -1.5392 -1.5222  1.4197
 2735SOL    HW2 8341   4.140   2.261   3.737  0.3231  1.2282 -0.8356
 2736SOL     OW 8342   0.134   4.625   0.158 -0.2011 -0.0128 -0.3328
 2736SOL    HW1 8343   0.132   4.686   0.085  0.9292 -0.8019 -1.0420
 2736SOL    HW2 8344   0.074   4.664   0.223 -1.0137  0.8299 -1.5417
 2737SOL     OW 8345   4.465   0.418   4.100  0.4780  0.4157 -0.0318
 2737SOL    HW1 8346   4.380   0.442   4.062  0.7906  1.5612 -0.0597
 2737SOL    HW2 8347   4.461   0.323   4.112 -1.7458  0.7040  2.2332
 2738SOL     OW 8348   3.538   4.994   3.319 -0.5857 -0.4171  0.0372
 2738SOL    HW1 8349   3.445   4.985   3.340 -0.6391 -0.6526 -0.3003
 2738SOL    HW2 8350   3.570   4.904   3.310 -0.1912 -0.3597  0.7078
 2739SOL     OW 8351   0.721   4.023   0.883 -0.0021  0.1552  0.3468
 2739SOL    HW1 8352   0.803   3.976   0.894  0.5669  1.2384  1.0007
 2739SOL    HW2 8353   0.695   4.007   0.793  0.2472 -1.2422  0.5015
 2740SOL     OW 8354   1.966   1.602   2.262 -0.1434  0.4023  0.2353
 2740SOL    HW1 8355   1.934   1.681   2.304  0.4203  0.8407 -0.1437
 2740SOL    HW2 8356   2.004   1.633   2.179 -2.5113 -0.5622 -1.3336
 2741SOL     OW 8357   2.631   4.911   3.324 -0.0136 -0.2150  0.3218
 2741SOL    HW1 8358   2.604   4.839   3.381 -1.0338 -0.5559 -0.5552
 2741SOL    HW2 8359   2.548   4.946   3.289  0.6015 -0.5984 -1.6312
 2742SOL     OW 8360   2.934   3.727   1.210  0.7414 -0.1607  0.1575
 2742SOL    HW1 8361   2.913   3.662   1.278 -3.0707 -0.4141 -0.9890
 2742SOL    HW2 8362   2.963   3.804   1.259  0.9228 -1.2571  1.8686
 2743SOL     OW 8363   3.024   0.379   2.898 -0.1952  0.5681  0.1217
 2743SOL    HW1 8364   3.026   0.451   2.961  0.1062  1.2669 -0.6664
 2743SOL    HW2 8365   3.078   0.409   2.825 -1.0721  0.0546 -0.7647
 2744SOL     OW 8366   2.178   3.502   0.512  0.1464 -0.2831  0.0153
 2744SOL    HW1 8367   2.180   3.513   0.417 -0.1369  0.7406  0.1120
 2744SOL    HW2 8368   2.157   3.410   0.525  0.8177 -0.5824 -0.9111
 2745SOL     OW 8369   2.111   4.006   4.165  0.5949  0.1425 -0.4336
 2745SOL    HW1 8370   2.187   3.949   4.175  1.4891  0.9923 -2.0782
 2745SOL    HW2 8371   2.139   4.090   4.201  0.1310  0.2246 -0.2589
 2746SOL     OW 8372   0.346   2.138   0.900  0.1612 -0.8385  0.7897
 2746SOL    HW1 8373   0.316   2.159   0.988 -0.3826 -0.1225  0.4425
 2746SOL    HW2 8374   0.269   2.103   0.855  0.0715  0.0740  0.1972
 2747SOL     OW 8375   1.502   1.014   4.513  0.7063 -0.1419 -0.3189
 2747SOL    HW1 8376   1.459   0.949   4.457 -1.3616  1.0409 -0.2276
 2747SOL    HW2 8377   1.437   1.035   4.579  1.2064  2.1548 -0.4778
 2748SOL     OW 8378   1.998   4.132   3.542 -0.1430  0.3860  0.6375
 2748SOL    HW1 8379   2.053   4.055   3.556  1.2279  1.4437  1.2859
 2748SOL    HW2 8380   1.984   4.134   3.447  0.7144 -0.0720  0.4919
 2749SOL     OW 8381   0.128   1.389   3.679 -0.7028 -0.1029  0.0443
 2749SOL    HW1 8382   0.193   1.324   3.650 -0.5400 -0.3012  0.8418
 2749SOL    HW2 8383   0.175   1.472   3.681 -1.1364  0.2338 -1.8503
 2750SOL     OW 8384   0.967   4.219   4.329  1.1184 -0.1833  0.1373
 2750SOL    HW1 8385   0.961   4.137   4.280 -1.6660 -0.4435  0.7602
 2750SOL    HW2 8386   0.911   4.280   4.282  0.6357  0.3985  1.4305
 2751SOL     OW 8387   2.257   4.108   4.544  0.0741  0.7218  0.4503
 2751SOL    HW1 8388   2.252   4.019   4.510 -1.7539 -0.6119  3.6959
 2751SOL    HW2 8389   2.173   4.147   4.522  1.2453  2.1715 -1.8828
 2752SOL     OW 8390   4.520   0.988   0.785 -0.1309  0.8299  0.2889
 2752SOL    HW1 8391   4.531   1.083   0.777 -0.0439  0.9698  1.7511
 2752SOL    HW2 8392   4.588   0.952   0.728  0.3053  1.6509  0.2631
 2753SOL     OW 8393   2.188   2.789   2.639 -0.2216  0.1986 -0.5936
 2753SOL    HW1 8394   2.223   2.775   2.551 -0.7561 -0.5654 -0.6930
 2753SOL    HW2 8395   2.181   2.701   2.677 -1.3602  0.3910 -0.3212
 2754SOL     OW 8396   3.914   3.236   4.516 -0.1404 -0.1469  0.6010
 2754SOL    HW1 8397   3.963   3.314   4.490 -0.0755 -0.2029  0.5550
 2754SOL    HW2 8398   3.840   3.233   4.455  1.3175 -1.6339 -1.2186
 2755SOL     OW 8399   0.656   4.746   3.163 -0.0623 -0.0371  0.5076
 2755SOL    HW1 8400   0.724   4.679   3.156 -0.3465 -0.4097  1.2278
 2755SOL    HW2 8401   0.704   4.825   3.190  0.3443  0.2052 -0.8210
 2756SOL     OW 8402   4.530   0.198   1.876 -0.7517 -0.4413 -0.8329
 2756SOL    HW1 8403   4.614   0.232   1.907 -0.5160 -0.1687 -1.7520
 2756SOL    HW2 8404   4.525   0.110   1.915 -1.1136  0.3863  1.0979
 2757SOL     OW 8405   4.122   4.636   1.773  0.5430 -0.3247 -0.4676
 2757SOL    HW1 8406   4.113   4.554   1.724 -1.9357 -0.1963 -0.3333
 2757SOL    HW2 8407   4.120   4.609   1.865  1.1622 -0.2232 -0.4224
 2758SOL     OW 8408   4.376   1.090   2.980 -0.0624 -0.4549  0.5458
 2758SOL    HW1 8409   4.408   1.078   3.069 -1.2713  0.4975  1.1414
 2758SOL    HW2 8410   4.370   1.185   2.970 -0.3227 -0.5660 -0.4068
 2759SOL     OW 8411   2.082   4.140   2.559 -0.1984  0.1233 -0.3575
 2759SOL    HW1 8412   2.034   4.219   2.581  0.9813  0.7074  0.2141
 2759SOL    HW2 8413   2.065   4.127   2.466 -0.5875  0.9184 -0.4070
 2760SOL     OW 8414   0.650   3.651   4.917  0.3581 -0.2846 -0.1712
 2760SOL    HW1 8415   0.569   3.606   4.941  0.1410 -0.2689 -0.8535
 2760SOL    HW2 8416   0.711   3.581   4.893  0.1953 -0.2499 -0.7029
 2761SOL     OW 8417   1.210   3.985   2.891  0.9303 -0.3035 -0.0696
 2761SOL    HW1 8418   1.230   4.042   2.965  2.0804 -0.8980  0.1147
 2761SOL    HW2 8419   1.178   3.904   2.931 -2.2863  0.7141 -0.3735
 2762SOL     OW 8420   0.496   0.986   1.890  0.4113  0.0777  0.2317
 2762SOL    HW1 8421   0.501   0.942   1.976 -1.3442 -0.7031 -0.0265
 2762SOL    HW2 8422   0.462   0.919   1.831 -0.6779  1.2921 -0.5633
 2763SOL     OW 8423   0.031   3.526   1.832  0.2123  0.1246  0.2864
 2763SOL    HW1 8424   0.058   3.608   1.874 -0.7409  0.6452 -0.0952
 2763SOL    HW2 8425  -0.046   3.498   1.881 -1.1430  0.9294 -1.3160
 2764SOL     OW 8426   4.854   3.450   2.005 -0.0113 -0.4601  0.4567
 2764SOL    HW1 8427   4.882   3.449   2.096  0.3327 -0.6954  0.3492
 2764SOL    HW2 8428   4.759   3.462   2.009  0.0363 -0.1757  0.8350
 2765SOL     OW 8429   1.947   3.461   2.634 -0.4886  0.5420 -0.3208
 2765SOL    HW1 8430   1.992   3.440   2.716 -1.9317  1.6038  0.7922
 2765SOL    HW2 8431   1.999   3.532   2.595  0.9918 -0.8920 -1.0831
 2766SOL     OW 8432   2.683   2.775   3.437 -0.5498 -0.2171 -0.0922
 2766SOL    HW1 8433   2.677   2.869   3.423  0.3778  0.0550  1.1747
 2766SOL    HW2 8434   2.773   2.760   3.464 -0.6060 -1.5178 -0.5291
 2767SOL     OW 8435   1.403   3.397   3.944  0.2519 -0.3871  0.4399
 2767SOL    HW1 8436   1.346   3.441   3.882  1.4459  0.0072 -0.4144
 2767SOL    HW2 8437   1.359   3.407   4.029  0.3496  2.2495  0.2575
 2768SOL     OW 8438   0.590   1.079   4.940 -0.6202 -0.3500  0.5696
 2768SOL    HW1 8439   0.599   1.064   5.034 -0.3475 -0.8962  0.4615
 2768SOL    HW2 8440   0.632   1.164   4.926  0.4626 -0.8307  0.7598
 2769SOL     OW 8441   2.313   1.518   0.948 -0.0695 -0.6904 -0.2428
 2769SOL    HW1 8442   2.345   1.436   0.912  1.0236  0.4301 -1.9777
 2769SOL    HW2 8443   2.255   1.553   0.880  0.9262  0.8015 -0.3895
 2770SOL     OW 8444   0.566   0.164   2.917  0.2583  0.0534 -0.4596
 2770SOL    HW1 8445   0.622   0.092   2.889 -0.3497 -0.1154 -1.2787
 2770SOL    HW2 8446   0.496   0.166   2.852 -0.2726  0.7431  0.1224
 2771SOL     OW 8447   0.331   4.007   1.548 -0.0723  0.7425  0.2171
 2771SOL    HW1 8448   0.244   4.046   1.536  0.4634  2.0372  0.3844
 2771SOL    HW2 8449   0.357   3.982   1.459 -0.4204  0.7611  0.1044
 2772SOL     OW 8450   1.682   1.323   3.019 -0.3427 -0.2601 -0.0521
 2772SOL    HW1 8451   1.610   1.263   3.036  0.8804 -1.3425  1.7434
 2772SOL    HW2 8452   1.655   1.406   3.057 -0.8230 -0.5394  0.2198
 2773SOL     OW 8453   4.107   4.430   2.070  0.1273  0.4480  0.1055
 2773SOL    HW1 8454   4.116   4.336   2.054 -3.3812 -0.5421  2.6520
 2773SOL    HW2 8455   4.194   4.458   2.100  1.1034 -2.1048 -0.0835
 2774SOL     OW 8456   1.560   2.717   2.967  0.4411  0.1780 -0.8627
 2774SOL    HW1 8457   1.606   2.761   3.038 -1.1595 -0.5789  0.7077
 2774SOL    HW2 8458   1.612   2.638   2.949 -0.4838 -1.0415  1.3801
 2775SOL     OW 8459   0.238   0.922   2.482 -0.4874  0.6793 -0.0800
 2775SOL    HW1 8460   0.316   0.960   2.440  0.7494  0.4246  1.8225
 2775SOL    HW2 8461   0.219   0.843   2.431 -0.7716  1.7848 -1.7816
 2776SOL     OW 8462   0.658   4.522   1.477  0.1438 -0.2161 -0.2414
 2776SOL    HW1 8463   0.660   4.484   1.565  2.1142 -1.0846 -0.5925
 2776SOL    HW2 8464   0.667   4.447   1.418  1.2773  0.5311 -1.0665
 2777SOL     OW 8465   0.534   4.040   2.168  0.4256  0.2871  0.5596
 2777SOL    HW1 8466   0.515   4.122   2.121 -0.1897 -0.4265 -0.4760
 2777SOL    HW2 8467   0.519   4.062   2.260 -2.6854  0.5999  0.0870
 2778SOL     OW 8468   1.150   4.252   3.701  0.1646 -0.0608 -0.0845
 2778SOL    HW1 8469   1.119   4.293   3.782 -0.6409 -1.0378  0.1164
 2778SOL    HW2 8470   1.228   4.204   3.727  0.5937  0.5949 -0.1389
 2779SOL     OW 8471   4.932   0.256   4.432 -0.4586  0.4895 -0.4125
 2779SOL    HW1 8472   4.862   0.265   4.367 -2.6106  0.4909  1.7671
 2779SOL    HW2 8473   4.962   0.165   4.424 -2.2203 -0.1623 -0.0114
 2780SOL     OW 8474   2.605   3.582   2.765  0.3825  0.4358 -0.0743
 2780SOL    HW1 8475   2.684   3.578   2.818 -0.0889  0.5455  0.6516
 2780SOL    HW2 8476   2.583   3.491   2.747 -0.2494  0.3310  1.1367
 2781SOL     OW 8477   0.766   2.488   0.646 -0.3022  0.1250  0.3028
 2781SOL    HW1 8478   0.784   2.578   0.675 -0.5910 -0.5020  2.6127
 2781SOL    HW2 8479   0.675   2.473   0.670 -0.0071 -1.0452  0.7528
 2782SOL     OW 8480   3.333   2.890   2.588 -0.6398 -0.1305 -0.3614
 2782SOL    HW1 8481   3.395   2.841   2.536  1.3747  2.3891 -0.5305
 2782SOL    HW2 8482   3.375   2.975   2.602 -3.3799  1.1436  0.9019
 2783SOL     OW 8483   2.951   0.480   1.485 -0.1763 -0.5381  0.3934
 2783SOL    HW1 8484   3.039   0.511   1.507  0.0136  0.2617 -1.3529
 2783SOL    HW2 8485   2.933   0.411   1.549  1.8188 -0.9138  0.5994
 2784SOL     OW 8486   3.275   1.959   1.417  0.3522 -0.3526  0.1829
 2784SOL    HW1 8487   3.203   2.007   1.376  1.3505 -0.1004 -1.3577
 2784SOL    HW2 8488   3.345   2.023   1.427  0.1929 -0.4517  2.2213
 2785SOL     OW 8489   3.053   3.073   4.819  0.3748 -0.5922 -0.0414
 2785SOL    HW1 8490   2.995   3.013   4.770  0.1134 -0.9885  0.7455
 2785SOL    HW2 8491   3.126   3.018   4.847  0.8089 -0.2372 -0.4604
 2786SOL     OW 8492   1.231   1.969   0.948  0.6912 -0.7549 -0.0146
 2786SOL    HW1 8493   1.182   1.986   1.029 -2.1904 -1.9705 -1.3292
 2786SOL    HW2 8494   1.246   1.875   0.949  2.1175 -0.5466 -0.1759
 2787SOL     OW 8495   0.853   1.859   4.984  0.1820  0.4356 -0.0937
 2787SOL    HW1 8496   0.878   1.941   4.941  1.3245  0.2921  0.2564
 2787SOL    HW2 8497   0.921   1.796   4.957 -0.8562 -0.4935 -0.6251
 2788SOL     OW 8498   0.147   0.703   2.321  0.3549 -0.2647  0.3454
 2788SOL    HW1 8499   0.114   0.688   2.409 -0.4836  1.6192  0.4039
 2788SOL    HW2 8500   0.231   0.657   2.318  0.3869 -0.3751  2.1104
 2789SOL     OW 8501   2.979   2.185   1.596  0.6179 -0.2431  0.2346
 2789SOL    HW1 8502   3.029   2.193   1.677  0.2155 -0.5889  0.5228
 2789SOL    HW2 8503   3.009   2.103   1.557  0.6718 -0.1730  0.1260
 2790SOL     OW 8504   0.421   0.828   4.933 -0.4047  1.0127 -0.0998
 2790SOL    HW1 8505   0.365   0.866   5.000 -3.7183 -0.2666 -1.8502
 2790SOL    HW2 8506   0.454   0.902   4.883 -0.1595  1.8418  1.2626
 2791SOL     OW 8507   0.070   3.235   1.996 -0.2289  0.1805  0.5187
 2791SOL    HW1 8508   0.022   3.309   1.958  1.4087 -0.3244 -2.8964
 2791SOL    HW2 8509   0.022   3.158   1.965 -1.0031 -0.3098  2.7446
 2792SOL     OW 8510   4.202   3.931   2.404  0.2078 -0.5202 -0.1042
 2792SOL    HW1 8511   4.272   3.867   2.392  0.2301 -0.3873 -0.7050
 2792SOL    HW2 8512   4.184   3.964   2.316 -1.0056 -0.9719 -0.0444
 2793SOL     OW 8513   4.579   0.234   0.928  0.1433  0.0746  0.2580
 2793SOL    HW1 8514   4.489   0.266   0.919 -0.3842 -1.7004 -1.4773
 2793SOL    HW2 8515   4.572   0.160   0.987  0.6615  0.5824  0.9641
 2794SOL     OW 8516   3.773   3.322   0.154 -0.1094  0.1696  0.0755
 2794SOL    HW1 8517   3.797   3.320   0.062  1.0082 -0.4033  0.3608
 2794SOL    HW2 8518   3.679   3.341   0.154 -0.1206  0.1971 -1.1697
 2795SOL     OW 8519   3.603   4.940   2.539  0.1546 -0.1660  0.3296
 2795SOL    HW1 8520   3.691   4.971   2.517 -0.1358  0.0410 -0.6072
 2795SOL    HW2 8521   3.555   4.946   2.456 -0.8688  0.1705  0.9309
 2796SOL     OW 8522   0.779   2.034   1.630  0.7085 -0.0701 -0.0276
 2796SOL    HW1 8523   0.842   1.962   1.629 -0.4900 -1.1535 -0.3057
 2796SOL    HW2 8524   0.700   1.997   1.670 -0.3325  0.7205 -1.2567
 2797SOL     OW 8525   3.138   2.667   2.601 -0.0374  0.7100 -0.0679
 2797SOL    HW1 8526   3.223   2.711   2.598  0.9233 -0.9340  1.0993
 2797SOL    HW2 8527   3.116   2.650   2.510  1.3145  0.4367 -0.3656
 2798SOL     OW 8528   4.910   3.759   1.187  0.6128  0.3548  0.4751
 2798SOL    HW1 8529   4.922   3.702   1.263  0.7132  0.6713  0.6964
 2798SOL    HW2 8530   4.997   3.765   1.147  1.0186  1.8640  1.5251
 2799SOL     OW 8531   1.434   1.161   3.293 -0.0284 -0.3467  0.5455
 2799SOL    HW1 8532   1.495   1.091   3.269 -1.1613 -0.4970 -2.3555
 2799SOL    HW2 8533   1.395   1.132   3.376  0.8839 -2.2289  0.3591
 2800SOL     OW 8534   2.224   4.081   3.855 -0.1848 -0.0928  0.4594
 2800SOL    HW1 8535   2.255   4.078   3.945 -0.1789  2.3764  0.6109
 2800SOL    HW2 8536   2.150   4.142   3.857 -0.4434 -0.2960 -1.1398
 2801SOL     OW 8537   4.706   4.326   4.097 -0.1751 -0.1858  0.4588
 2801SOL    HW1 8538   4.676   4.318   4.007 -0.2450 -2.2588  0.6185
 2801SOL    HW2 8539   4.802   4.323   4.091 -0.0931  1.4951  0.3511
 2802SOL     OW 8540   4.141   3.620   0.839  0.3382 -0.1099 -0.2845
 2802SOL    HW1 8541   4.133   3.525   0.846 -2.1308 -0.0380 -1.4413
 2802SOL    HW2 8542   4.095   3.643   0.759  0.5040  2.1244  0.1973
 2803SOL     OW 8543   2.029   4.573   5.025 -0.4630 -0.6008 -0.7899
 2803SOL    HW1 8544   2.114   4.616   5.014 -0.2265 -0.6667  0.5324
 2803SOL    HW2 8545   2.014   4.527   4.943 -1.0615  2.5277 -2.5533
 2804SOL     OW 8546   1.587   0.482   4.869 -0.6040  0.2898 -0.0719
 2804SOL    HW1 8547   1.522   0.439   4.925 -0.5213 -1.2734 -1.1115
 2804SOL    HW2 8548   1.656   0.509   4.930 -1.0199 -0.4033  0.7311
 2805SOL     OW 8549   1.344   2.716   2.258  0.1045  0.7465  0.4575
 2805SOL    HW1 8550   1.255   2.704   2.226  0.7496 -2.2044 -0.5646
 2805SOL    HW2 8551   1.339   2.695   2.352 -0.1543 -0.3483  0.2134
 2806SOL     OW 8552   3.443   2.481   0.066  0.0949  0.2849  0.6482
 2806SOL    HW1 8553   3.359   2.517   0.036 -0.1574  0.2070  1.2452
 2806SOL    HW2 8554   3.423   2.443   0.152  0.6795  0.0060  0.6623
 2807SOL     OW 8555   2.356   3.599   2.211 -0.2907 -0.4488 -1.0696
 2807SOL    HW1 8556   2.438   3.632   2.247 -0.5481  1.1402 -1.8671
 2807SOL    HW2 8557   2.382   3.541   2.139  0.1747 -2.4029  0.5726
 2808SOL     OW 8558   4.593   2.575   4.623 -0.1128 -0.2747 -0.2683
 2808SOL    HW1 8559   4.509   2.546   4.587  1.0209 -3.3431 -0.6874
 2808SOL    HW2 8560   4.573   2.600   4.714 -1.3551 -1.6840 -0.1209
 2809SOL     OW 8561   0.579   0.717   4.090 -0.1057 -0.6095  0.7298
 2809SOL    HW1 8562   0.591   0.686   4.180  2.4849 -1.4028  0.1841
 2809SOL    HW2 8563   0.645   0.670   4.040  1.4933  3.0193 -0.8571
 2810SOL     OW 8564   1.476   4.718   2.604 -0.0265  0.2212 -0.4520
 2810SOL    HW1 8565   1.508   4.722   2.514 -0.0468  1.9342 -0.4122
 2810SOL    HW2 8566   1.402   4.779   2.606  0.5440  0.9125  0.9332
 2811SOL     OW 8567   3.847   4.411   4.242 -0.4601 -0.8126  0.2447
 2811SOL    HW1 8568   3.880   4.456   4.164 -0.4152  0.5512  1.0174
 2811SOL    HW2 8569   3.857   4.475   4.312 -0.1245 -2.1605  1.4621
 2812SOL     OW 8570   2.077   4.812   3.690  0.0583 -0.4017  0.3844
 2812SOL    HW1 8571   2.028   4.800   3.771 -0.1373  0.9717  0.4868
 2812SOL    HW2 8572   2.042   4.744   3.631 -2.3487  0.7827  0.3105
 2813SOL     OW 8573   2.610   2.707   0.330 -0.0843 -0.2957  0.6361
 2813SOL    HW1 8574   2.569   2.790   0.305  0.9736  0.1965  0.4658
 2813SOL    HW2 8575   2.695   2.733   0.367 -0.6657 -1.1469  2.7086
 2814SOL     OW 8576   3.780   0.734   0.538  0.1301  0.1036  0.0073
 2814SOL    HW1 8577   3.756   0.747   0.447 -0.2533  0.3706  0.1447
 2814SOL    HW2 8578   3.699   0.744   0.587  0.0596 -1.4305  0.2617
 2815SOL     OW 8579   1.789   3.191   2.210  0.1985 -0.0959  0.3301
 2815SOL    HW1 8580   1.824   3.117   2.161 -1.3377  0.0891 -1.1421
 2815SOL    HW2 8581   1.735   3.151   2.278 -1.5573 -0.4144 -1.1592
 2816SOL     OW 8582   1.405   4.218   1.723 -0.4705  0.1835  0.1059
 2816SOL    HW1 8583   1.422   4.134   1.680  1.1221  0.1583  0.7032
 2816SOL    HW2 8584   1.315   4.212   1.753 -0.2584 -1.5020  0.5057
 2817SOL     OW 8585   2.342   0.091   1.156 -0.5228  0.6306 -0.1135
 2817SOL    HW1 8586   2.324   0.105   1.249 -2.1466  2.2691 -0.6014
 2817SOL    HW2 8587   2.437   0.085   1.150 -0.3911  0.6423  1.6447
 2818SOL     OW 8588   1.714   0.742   0.104  0.3210  0.0044  0.3693
 2818SOL    HW1 8589   1.776   0.690   0.154 -0.4182  0.1026  1.4194
 2818SOL    HW2 8590   1.767   0.785   0.037  1.3524 -0.0596  1.1251
 2819SOL     OW 8591   1.482   0.329   2.268 -0.2089 -0.0892  0.4333
 2819SOL    HW1 8592   1.554   0.388   2.292 -0.8799  0.2891  1.6122
 2819SOL    HW2 8593   1.406   0.365   2.313 -1.4469  0.2560 -1.7979
 2820SOL     OW 8594   1.299   2.573   0.661  0.2651 -0.2751  0.1390
 2820SOL    HW1 8595   1.367   2.629   0.701  1.2294 -2.5222  1.8712
 2820SOL    HW2 8596   1.248   2.542   0.736 -1.1205 -0.6184 -0.9284
 2821SOL     OW 8597   1.601   3.552   2.852  0.3887  0.1024 -0.0857
 2821SOL    HW1 8598   1.560   3.617   2.794 -2.8963 -0.4181  1.3803
 2821SOL    HW2 8599   1.604   3.472   2.800  1.5428  0.6456 -0.8884
 2822SOL     OW 8600   4.124   2.362   0.064 -0.3849  0.6136  0.3828
 2822SOL    HW1 8601   4.050   2.301   0.063 -1.3132  1.6977  0.6729
 2822SOL    HW2 8602   4.154   2.365  -0.026 -1.7840  1.4166 -0.0842
 2823SOL     OW 8603   4.854   0.211   1.327  0.2792  0.1943  0.8676
 2823SOL    HW1 8604   4.838   0.162   1.407 -0.6727  0.1573  0.6632
 2823SOL    HW2 8605   4.851   0.144   1.258  1.8247  0.1034  0.8464
 2824SOL     OW 8606   4.984   4.125   1.807 -0.5657  0.1831 -0.4304
 2824SOL    HW1 8607   4.991   4.033   1.832 -0.9927  0.1749 -0.3383
 2824SOL    HW2 8608   5.001   4.126   1.713  0.2786  0.1192 -0.2869
 2825SOL     OW 8609   4.737   4.158   0.943 -0.1341  0.0357 -0.1626
 2825SOL    HW1 8610   4.671   4.090   0.933  0.1878 -0.3336  0.2198
 2825SOL    HW2 8611   4.728   4.211   0.864 -2.0399  1.0014  0.6201
 2826SOL     OW 8612   0.752   3.594   1.804  0.4695  0.2046 -0.8187
 2826SOL    HW1 8613   0.762   3.552   1.719  1.2109  0.8544 -1.0580
 2826SOL    HW2 8614   0.773   3.686   1.789 -1.5671  0.7898 -0.3950
 2827SOL     OW 8615   4.470   2.586   3.081 -0.3286 -0.1779 -0.0316
 2827SOL    HW1 8616   4.486   2.600   2.988 -2.3872  0.9395 -0.2774
 2827SOL    HW2 8617   4.442   2.494   3.087  5.8903 -2.5170  0.5287
 2828SOL     OW 8618   4.631   3.129   2.891  0.6959 -0.3280  0.1376
 2828SOL    HW1 8619   4.712   3.161   2.929  1.6648  0.1709 -2.1845
 2828SOL    HW2 8620   4.650   3.039   2.863  0.6382 -0.0588 -0.8279
 2829SOL     OW 8621   4.299   4.707   0.461  0.5208 -0.0007  0.3459
 2829SOL    HW1 8622   4.365   4.766   0.498  0.6775 -0.9123  1.5689
 2829SOL    HW2 8623   4.216   4.754   0.472  0.4498 -0.5481  2.6572
 2830SOL     OW 8624   0.457   0.364   2.287 -0.1458 -0.1291  0.5067
 2830SOL    HW1 8625   0.450   0.322   2.373  0.4886  0.3341  0.7905
 2830SOL    HW2 8626   0.549   0.388   2.279 -0.2884  0.2449 -0.1132
 2831SOL     OW 8627   3.868   0.569   2.895  0.5211 -0.5481 -0.2347
 2831SOL    HW1 8628   3.958   0.538   2.885  0.3003 -1.4960  0.5591
 2831SOL    HW2 8629   3.858   0.582   2.989 -0.0738 -0.1467 -0.3530
 2832SOL     OW 8630   4.050   2.858   3.949 -0.4612  0.0647 -0.1276
 2832SOL    HW1 8631   3.990   2.933   3.945  1.2544  1.5625  0.6796
 2832SOL    HW2 8632   4.094   2.858   3.864  1.4621  1.7369  0.7847
 2833SOL     OW 8633   2.923   3.239   1.535  0.4550 -0.3100 -0.5052
 2833SOL    HW1 8634   2.887   3.173   1.475  2.1040 -2.0869  0.3618
 2833SOL    HW2 8635   3.017   3.220   1.538  0.7743  1.2695  0.7921
 2834SOL     OW 8636   4.864   2.599   4.524 -0.1463  0.6172 -0.4927
 2834SOL    HW1 8637   4.896   2.514   4.556 -0.0811  0.9805  0.4394
 2834SOL    HW2 8638   4.771   2.597   4.543  0.1965  1.5864  1.5256
 2835SOL     OW 8639   0.079   2.982   2.297 -0.2787  0.2291 -0.0872
 2835SOL    HW1 8640   0.103   3.074   2.290  0.2419  0.2533  1.5191
 2835SOL    HW2 8641   0.159   2.937   2.323 -0.9099 -0.3943  0.8689
 2836SOL     OW 8642   4.087   4.097   1.068 -0.2162 -0.2726  0.0753
 2836SOL    HW1 8643   4.005   4.059   1.099 -0.6373  1.3279  1.0142
 2836SOL    HW2 8644   4.154   4.036   1.099 -0.9453 -0.9571  0.3569
 2837SOL     OW 8645   2.078   2.542   3.189  0.0256  0.0855  0.1737
 2837SOL    HW1 8646   2.098   2.635   3.186 -1.6036  0.4827  0.9411
 2837SOL    HW2 8647   2.099   2.510   3.101  0.3441  1.2206 -0.1768
 2838SOL     OW 8648   3.901   0.438   0.752  0.6283  0.3643 -0.2904
 2838SOL    HW1 8649   3.865   0.491   0.823 -0.6759 -0.8232 -0.0142
 2838SOL    HW2 8650   3.967   0.494   0.711  1.1458  1.2382  1.5877
 2839SOL     OW 8651   4.897   1.531   3.600  0.0781 -0.1688  0.1779
 2839SOL    HW1 8652   4.963   1.466   3.624 -1.6526 -1.7540  0.8541
 2839SOL    HW2 8653   4.938   1.582   3.529  1.9327 -1.1815  0.4531
 2840SOL     OW 8654   2.274   2.011   2.416 -0.3000 -0.0285  0.7180
 2840SOL    HW1 8655   2.319   2.017   2.332 -2.1466 -0.6947 -0.3727
 2840SOL    HW2 8656   2.338   1.971   2.475  1.7181  2.2790  0.2160
 2841SOL     OW 8657   4.912   4.704   0.971 -0.3307 -0.9856 -0.2381
 2841SOL    HW1 8658   4.983   4.721   1.033 -1.9546  3.3583  0.8359
 2841SOL    HW2 8659   4.853   4.645   1.017  0.8278 -1.7318  0.3238
 2842SOL     OW 8660   4.736   3.499   0.456  0.8214 -0.1984  0.2902
 2842SOL    HW1 8661   4.772   3.443   0.525 -0.7800 -1.1434  0.4122
 2842SOL    HW2 8662   4.736   3.587   0.493  0.2788 -0.6502  1.3983
 2843SOL     OW 8663   0.229   0.245   2.490  0.1358 -0.2941 -0.1412
 2843SOL    HW1 8664   0.244   0.150   2.487  2.2717  0.0052 -0.3814
 2843SOL    HW2 8665   0.248   0.269   2.581  1.5861  0.1741 -0.5546
 2844SOL     OW 8666   4.059   4.060   0.522 -0.4694  0.3701 -0.0910
 2844SOL    HW1 8667   4.029   4.146   0.492  0.5395  1.3309  1.5347
 2844SOL    HW2 8668   4.095   4.076   0.609 -0.7028 -1.8063  0.4576
 2845SOL     OW 8669   1.344   4.897   1.795 -0.0390  0.8884 -0.2648
 2845SOL    HW1 8670   1.267   4.944   1.827 -1.3096 -0.1772 -1.6330
 2845SOL    HW2 8671   1.326   4.882   1.702 -0.4141 -3.4913  0.3004
 2846SOL     OW 8672   0.120   3.760   0.931 -0.4017 -0.1177 -0.7203
 2846SOL    HW1 8673   0.126   3.810   1.012  1.7886 -1.5244  0.0948
 2846SOL    HW2 8674   0.107   3.826   0.863 -2.8729  1.0427  0.7730
 2847SOL     OW 8675   3.517   4.935   4.211  0.0614 -0.2815  0.4542
 2847SOL    HW1 8676   3.538   4.943   4.304 -1.2606  0.1679  0.7390
 2847SOL    HW2 8677   3.427   4.902   4.209  0.6003 -1.8077 -0.6909
 2848SOL     OW 8678   3.339   2.973   1.500  0.3563  0.1570 -0.1912
 2848SOL    HW1 8679   3.270   2.980   1.435 -2.1466 -0.0232  2.2633
 2848SOL    HW2 8680   3.338   2.880   1.526  1.4789  0.1750 -0.0321
 2849SOL     OW 8681   3.426   2.477   4.299  0.3717 -0.3749 -0.6870
 2849SOL    HW1 8682   3.482   2.555   4.300  0.4350 -0.3978 -1.6340
 2849SOL    HW2 8683   3.471   2.414   4.356 -0.1454  0.5740  0.8255
 2850SOL     OW 8684   4.367   0.281   3.838 -0.0472  1.0091  0.2455
 2850SOL    HW1 8685   4.397   0.370   3.856  0.2836  0.7928  0.7833
 2850SOL    HW2 8686   4.426   0.249   3.770  0.9862  0.5825  1.3010
 2851SOL     OW 8687   2.599   0.855   3.369 -0.1737 -0.0929  0.6570
 2851SOL    HW1 8688   2.549   0.781   3.334  0.6926  0.0458 -1.0065
 2851SOL    HW2 8689   2.584   0.926   3.307 -0.5402  0.9842  1.9327
 2852SOL     OW 8690   3.883   3.508   4.601 -0.2561 -0.0684 -0.4171
 2852SOL    HW1 8691   3.802   3.459   4.617  0.1427 -0.6284 -0.0688
 2852SOL    HW2 8692   3.853   3.593   4.569 -0.9852 -0.2277 -0.1950
 2853SOL     OW 8693   0.383   1.900   4.576  0.4195  0.4640 -0.5944
 2853SOL    HW1 8694   0.321   1.895   4.649 -0.2746  1.9621 -1.0453
 2853SOL    HW2 8695   0.387   1.810   4.543 -1.9771  0.3946 -0.9011
 2854SOL     OW 8696   4.194   0.558   4.179 -0.2554  0.4339  0.3067
 2854SOL    HW1 8697   4.197   0.643   4.134 -1.5098  0.9379  1.0989
 2854SOL    HW2 8698   4.109   0.558   4.223  0.6444 -0.2928  2.1501
 2855SOL     OW 8699   4.649   3.773   3.996 -0.0815  0.4431 -0.5195
 2855SOL    HW1 8700   4.678   3.863   3.978  2.0462 -0.2599 -0.8656
 2855SOL    HW2 8701   4.581   3.757   3.931 -0.5008  1.8101 -0.4519
 2856SOL     OW 8702   3.240   0.782   2.078 -0.2099 -0.1675 -0.2101
 2856SOL    HW1 8703   3.174   0.727   2.035 -0.4259  0.4978 -0.7294
 2856SOL    HW2 8704   3.194   0.862   2.101  0.1376 -0.1487  0.4540
 2857SOL     OW 8705   1.140   3.008   0.300  0.8186 -0.0815  0.4067
 2857SOL    HW1 8706   1.118   3.046   0.385  2.9840 -1.3624  1.6273
 2857SOL    HW2 8707   1.168   2.919   0.319  2.3264 -0.0949 -1.5279
 2858SOL     OW 8708   4.155   0.358   2.282  0.7981  0.6881  0.2238
 2858SOL    HW1 8709   4.225   0.311   2.237  0.5844  0.3837  0.2047
 2858SOL    HW2 8710   4.174   0.450   2.266  0.1029  0.5746 -1.4746
 2859SOL     OW 8711   0.031   3.387   2.212  0.8885  0.2762 -0.2350
 2859SOL    HW1 8712   0.114   3.392   2.259  1.5087 -0.4502 -1.2014
 2859SOL    HW2 8713   0.022   3.295   2.187  0.3033  0.5284 -1.0200
 2860SOL     OW 8714   1.863   0.687   2.170 -0.3239  0.3549  0.8030
 2860SOL    HW1 8715   1.857   0.739   2.250  1.3837  0.6063  0.8040
 2860SOL    HW2 8716   1.904   0.745   2.106 -1.1085 -0.0473 -0.0945
 2861SOL     OW 8717   3.454   2.701   2.452  0.3518  0.3625 -0.5689
 2861SOL    HW1 8718   3.435   2.611   2.478  2.0980 -0.3839 -1.6789
 2861SOL    HW2 8719   3.458   2.699   2.357 -1.9911  2.1877 -0.7976
 2862SOL     OW 8720   1.512   4.927   3.526 -0.5888  0.7925 -0.0831
 2862SOL    HW1 8721   1.511   4.906   3.433  0.5414  2.9647 -0.6765
 2862SOL    HW2 8722   1.589   4.881   3.560 -0.2829  0.9679 -0.5233
 2863SOL     OW 8723   2.512   2.035   0.017  0.1392 -0.2835  0.2670
 2863SOL    HW1 8724   2.594   1.987   0.007  0.7531  0.8543 -0.4268
 2863SOL    HW2 8725   2.538   2.128   0.013 -1.2429  0.0986 -0.7204
 2864SOL     OW 8726   1.479   0.250   1.347 -0.2964 -0.1061 -0.4970
 2864SOL    HW1 8727   1.446   0.273   1.260  1.3994  1.0776 -0.8683
 2864SOL    HW2 8728   1.534   0.173   1.332  1.3596  1.0939 -0.7963
 2865SOL     OW 8729   3.575   4.657   2.787 -0.6185  0.2557 -0.1689
 2865SOL    HW1 8730   3.564   4.750   2.807  0.9878  0.4253  0.0834
 2865SOL    HW2 8731   3.617   4.621   2.865 -0.8409 -0.6057 -0.4355
 2866SOL     OW 8732   1.514   0.075   4.717 -0.3402  0.5979  0.0357
 2866SOL    HW1 8733   1.514   0.150   4.658 -0.2086  0.8980  0.4150
 2866SOL    HW2 8734   1.424   0.072   4.752 -1.7466 -2.0351 -3.2496
 2867SOL     OW 8735   1.759   4.614   1.507 -0.6452  0.1371 -1.1226
 2867SOL    HW1 8736   1.843   4.645   1.541 -0.6706  0.6924 -1.5726
 2867SOL    HW2 8737   1.708   4.594   1.586  0.5673 -2.0546 -0.8045
 2868SOL     OW 8738   3.576   2.710   0.301  0.2652 -0.0114 -0.1691
 2868SOL    HW1 8739   3.641   2.781   0.306  1.0612 -0.7896  0.7289
 2868SOL    HW2 8740   3.623   2.632   0.327 -1.0018 -0.6336  0.3360
 2869SOL     OW 8741   4.788   2.307   4.350 -0.6734  0.1157 -0.6643
 2869SOL    HW1 8742   4.852   2.291   4.280  0.7217  1.9730  0.1071
 2869SOL    HW2 8743   4.819   2.255   4.423 -1.6095 -1.0902 -1.0876
 2870SOL     OW 8744   3.743   2.663   4.207  0.3877  0.1056 -0.0617
 2870SOL    HW1 8745   3.648   2.668   4.202  0.4846  2.9958 -0.6623
 2870SOL    HW2 8746   3.768   2.730   4.270  2.1244  1.3945 -1.9718
 2871SOL     OW 8747   0.418   4.597   0.911  0.5726  0.0323 -0.3551
 2871SOL    HW1 8748   0.471   4.581   0.990 -2.2046 -0.8031  1.4718
 2871SOL    HW2 8749   0.413   4.512   0.868 -1.1342 -0.4815  0.7681
 2872SOL     OW 8750   3.955  -0.000   3.263 -0.0265 -0.0419 -0.5550
 2872SOL    HW1 8751   3.921   0.088   3.252 -0.5470 -0.5220 -3.3095
 2872SOL    HW2 8752   3.878  -0.054   3.280  0.3779  0.0637  2.1987
 2873SOL     OW 8753   2.678   3.303   1.638  0.5563  0.2159 -0.4171
 2873SOL    HW1 8754   2.760   3.253   1.644  0.5400  0.2420  0.0991
 2873SOL    HW2 8755   2.704   3.393   1.657  0.2090  0.0236  1.1034
 2874SOL     OW 8756   3.477   2.141   1.410  0.2734 -0.0586 -0.1531
 2874SOL    HW1 8757   3.500   2.193   1.334 -0.1022 -2.9241 -2.3981
 2874SOL    HW2 8758   3.551   2.081   1.422 -0.5645 -1.0221  0.4295
 2875SOL     OW 8759   0.104   0.521   0.992 -0.1852 -0.3778 -0.0741
 2875SOL    HW1 8760   0.080   0.466   1.065 -1.8658 -1.4160 -1.3333
 2875SOL    HW2 8761   0.029   0.517   0.932  1.6188 -0.6991 -2.4970
 2876SOL     OW 8762   2.117   3.418   0.893  0.4268 -0.5417  0.2392
 2876SOL    HW1 8763   2.207   3.446   0.911  1.2036 -1.5802 -1.6918
 2876SOL    HW2 8764   2.065   3.498   0.901  1.2393 -0.2035  2.8643
 2877SOL     OW 8765   3.604   1.231   4.281 -0.4164  0.0147  0.3071
 2877SOL    HW1 8766   3.650   1.151   4.306 -2.3550 -1.1430  0.3614
 2877SOL    HW2 8767   3.667   1.301   4.299  0.6382 -1.3082  2.1735
 2878SOL     OW 8768   3.865   2.450   4.125  0.4210  0.2920  0.2141
 2878SOL    HW1 8769   3.821   2.528   4.156 -0.3173  0.1245 -0.3890
 2878SOL    HW2 8770   3.797   2.383   4.123  0.5103  0.2069 -1.3921
 2879SOL     OW 8771   1.546   1.495   2.474 -0.3101  0.1429  0.0430
 2879SOL    HW1 8772   1.533   1.491   2.569  0.4377  1.8089  0.2625
 2879SOL    HW2 8773   1.605   1.570   2.462 -0.7522  0.2325 -1.7762
 2880SOL     OW 8774   3.745   2.528   1.419 -0.3467  0.0527  0.1371
 2880SOL    HW1 8775   3.754   2.534   1.324 -0.8586 -1.2297 -0.0191
 2880SOL    HW2 8776   3.816   2.582   1.453  0.3207 -0.0751 -0.9784
 2881SOL     OW 8777   4.388   3.331   3.117 -0.1071  0.3631 -0.4320
 2881SOL    HW1 8778   4.433   3.402   3.072 -0.7873  1.4546  0.5588
 2881SOL    HW2 8779   4.360   3.369   3.200 -1.2114 -0.8267 -0.2240
 2882SOL     OW 8780   3.794   4.966   0.239  0.4224  0.2473  0.9562
 2882SOL    HW1 8781   3.871   4.990   0.188  0.4776 -0.5348  0.6425
 2882SOL    HW2 8782   3.792   4.870   0.235 -2.3995  0.2298 -1.8575
 2883SOL     OW 8783   2.518   0.203   0.600  0.2094  0.0642  0.3673
 2883SOL    HW1 8784   2.449   0.213   0.667  0.7780  1.8422  0.7505
 2883SOL    HW2 8785   2.597   0.184   0.650  0.1333 -1.3769 -0.0317
 2884SOL     OW 8786   4.196   2.705   2.797  0.6858  0.4458 -0.2515
 2884SOL    HW1 8787   4.254   2.631   2.777  2.9187  2.2058 -0.6933
 2884SOL    HW2 8788   4.150   2.723   2.715 -2.5129 -2.4271  0.6563
 2885SOL     OW 8789   4.372   4.553   3.595 -0.0078 -0.4047 -0.6378
 2885SOL    HW1 8790   4.303   4.619   3.600  1.0212  0.6367  0.5923
 2885SOL    HW2 8791   4.371   4.511   3.681  1.4966  0.2954 -0.2446
 2886SOL     OW 8792   3.746   2.653   2.955 -0.5554  0.0085  0.0542
 2886SOL    HW1 8793   3.740   2.599   2.876  1.9032 -0.7223  0.2931
 2886SOL    HW2 8794   3.836   2.643   2.984 -0.6206  2.5563  1.3754
 2887SOL     OW 8795   4.071   2.933   1.951 -0.1995  0.3834  0.2626
 2887SOL    HW1 8796   4.056   2.847   1.991  1.2098  0.3412  0.7650
 2887SOL    HW2 8797   3.994   2.984   1.974 -1.2255 -0.8288 -0.3267
 2888SOL     OW 8798   4.104   0.827   1.445  0.0273  0.6962 -0.0630
 2888SOL    HW1 8799   4.044   0.801   1.516  0.2354  0.2171 -0.0669
 2888SOL    HW2 8800   4.110   0.923   1.454 -1.6881  0.9140 -0.8109
 2889SOL     OW 8801   1.522   2.036   4.962 -0.4830  0.1364 -0.5255
 2889SOL    HW1 8802   1.573   2.109   4.997  0.1091 -1.0739  1.2569
 2889SOL    HW2 8803   1.581   1.961   4.967 -2.8647 -1.8636  3.7595
 2890SOL     OW 8804   3.926   3.350   4.022 -0.2931  0.0466  0.7625
 2890SOL    HW1 8805   3.913   3.420   4.085 -1.1719 -0.7733  1.5278
 2890SOL    HW2 8806   3.876   3.376   3.945  2.1873  1.9034 -0.3730
 2891SOL     OW 8807   3.758   4.737   4.647 -0.0554  0.0796  0.2654
 2891SOL    HW1 8808   3.847   4.762   4.675 -0.1110  1.2139 -0.4947
 2891SOL    HW2 8809   3.771   4.678   4.573  0.1882  3.5648 -2.7525
 2892SOL     OW 8810   3.146   3.547   0.153  0.1661 -0.5280 -0.1759
 2892SOL    HW1 8811   3.204   3.551   0.229  0.8845  1.8500 -0.7495
 2892SOL    HW2 8812   3.075   3.608   0.174 -1.2873 -2.1393 -0.1961
 2893SOL     OW 8813   4.159   2.497   4.197  0.6547  0.5361 -0.0960
 2893SOL    HW1 8814   4.133   2.577   4.151  0.2377 -0.4096 -1.5787
 2893SOL    HW2 8815   4.077   2.462   4.231  0.6156  0.0059 -0.7076
 2894SOL     OW 8816   1.523   4.915   4.311 -0.1957  0.0476  0.0477
 2894SOL    HW1 8817   1.586   4.875   4.251 -0.3306  1.0440 -0.7921
 2894SOL    HW2 8818   1.570   4.920   4.395 -0.0821 -1.5661  0.1168
 2895SOL     OW 8819   2.048   1.990   4.638 -0.1036  0.4319 -0.4030
 2895SOL    HW1 8820   2.080   1.922   4.579  0.4740 -0.3558  0.8013
 2895SOL    HW2 8821   2.096   1.977   4.719 -0.9099  1.4788  0.2690
 2896SOL     OW 8822   1.511   4.312   2.357  0.6068 -0.1332 -0.7427
 2896SOL    HW1 8823   1.572   4.300   2.429  0.4849 -1.3838 -0.8159
 2896SOL    HW2 8824   1.437   4.256   2.379  0.1869  0.1434 -1.4217
 2897SOL     OW 8825   1.082   0.205   4.183 -0.2939  0.2078  0.5022
 2897SOL    HW1 8826   1.149   0.246   4.237  0.5411 -0.3794 -0.0683
 2897SOL    HW2 8827   1.120   0.121   4.156 -0.0201  1.0872 -2.1934
 2898SOL     OW 8828   0.793   1.246   1.116 -0.2008  0.0602  0.0838
 2898SOL    HW1 8829   0.824   1.317   1.172 -0.1291  0.3236 -0.2809
 2898SOL    HW2 8830   0.815   1.275   1.027 -0.6813 -0.1589 -0.1115
 2899SOL     OW 8831   4.617   1.705   4.621 -0.1654  0.0716 -0.1999
 2899SOL    HW1 8832   4.646   1.645   4.690  0.5732  1.2006  0.5076
 2899SOL    HW2 8833   4.603   1.789   4.666  0.0780  0.7744 -1.3746
 2900SOL     OW 8834   0.209   3.171   4.148 -0.2304  0.3333  0.1197
 2900SOL    HW1 8835   0.156   3.156   4.070 -1.2010  0.7193  0.6916
 2900SOL    HW2 8836   0.252   3.255   4.132  0.1996  0.0355 -0.3281
 2901SOL     OW 8837   4.732   1.652   3.328  0.0802  0.1339 -0.3113
 2901SOL    HW1 8838   4.667   1.655   3.258 -0.2617 -0.9961 -0.0708
 2901SOL    HW2 8839   4.681   1.668   3.408 -0.1194 -1.7005 -0.0205
 2902SOL     OW 8840   1.811   4.259   3.229  0.5601  0.5046 -0.0618
 2902SOL    HW1 8841   1.896   4.218   3.213  0.7463  0.6607  0.5177
 2902SOL    HW2 8842   1.774   4.209   3.302 -0.6814 -0.7950 -1.5176
 2903SOL     OW 8843   0.525   0.976   2.917  0.1321  1.2031 -0.0628
 2903SOL    HW1 8844   0.546   0.937   3.002 -1.6836  3.7446  1.6975
 2903SOL    HW2 8845   0.467   0.912   2.876  1.3564 -0.2571  0.3801
 2904SOL     OW 8846   0.912   4.270   3.517 -0.8626 -0.6753  0.1763
 2904SOL    HW1 8847   0.929   4.330   3.590 -2.2720  2.3683 -1.7771
 2904SOL    HW2 8848   0.817   4.255   3.520 -1.2107  0.7777 -1.8299
 2905SOL     OW 8849   2.687   4.868   4.297 -1.4831  0.5780  0.2869
 2905SOL    HW1 8850   2.772   4.907   4.277 -0.8028 -1.0750 -0.2468
 2905SOL    HW2 8851   2.649   4.846   4.211 -1.2343 -1.1052  0.5729
 2906SOL     OW 8852   2.962   0.688   4.313 -0.1557  0.2431 -0.3308
 2906SOL    HW1 8853   2.914   0.699   4.395 -1.8618  0.5969 -1.3080
 2906SOL    HW2 8854   2.998   0.599   4.317 -1.9077 -0.4919 -0.0067
 2907SOL     OW 8855   4.332   3.913   1.429 -0.4943  0.1995 -0.3033
 2907SOL    HW1 8856   4.314   3.830   1.384 -0.9301 -0.2544  0.6556
 2907SOL    HW2 8857   4.251   3.964   1.418 -0.0042  0.7732 -1.4250
 2908SOL     OW 8858   4.984   0.174   0.754  0.3453  0.2813  0.5729
 2908SOL    HW1 8859   4.973   0.224   0.835 -0.9068 -0.8863  1.1660
 2908SOL    HW2 8860   4.945   0.089   0.773  0.1748 -0.0761 -1.2090
 2909SOL     OW 8861   3.827   3.007   4.186  0.6456  0.3334 -0.1461
 2909SOL    HW1 8862   3.840   2.934   4.246  0.8307 -0.5557 -1.2605
 2909SOL    HW2 8863   3.901   3.065   4.203  0.4178  0.3571  0.8468
 2910SOL     OW 8864   3.981   4.717   3.542 -0.3528  0.2005 -0.3239
 2910SOL    HW1 8865   4.050   4.739   3.480 -0.8045 -0.4794 -1.1019
 2910SOL    HW2 8866   3.979   4.789   3.604 -0.7684  1.5925 -1.8838
 2911SOL     OW 8867   3.724   0.817   3.665  0.5463  0.2861  0.1701
 2911SOL    HW1 8868   3.689   0.822   3.576  1.0148 -0.4558 -0.0586
 2911SOL    HW2 8869   3.647   0.825   3.721  0.1825  0.1828 -0.3090
 2912SOL     OW 8870   0.106   2.354   4.114 -0.9917 -0.2845  0.3795
 2912SOL    HW1 8871   0.150   2.278   4.077 -2.4659 -1.6427  1.2995
 2912SOL    HW2 8872   0.177   2.414   4.138  0.1839 -1.2583 -0.5463
 2913SOL     OW 8873   1.948   2.283   2.049 -0.8739  0.4218  0.0505
 2913SOL    HW1 8874   1.897   2.225   2.107 -3.9737  0.4856 -2.3183
 2913SOL    HW2 8875   1.987   2.224   1.985  0.9273  0.5340  0.9732
 2914SOL     OW 8876   4.935   1.096   2.768 -0.1011  0.1091 -0.2388
 2914SOL    HW1 8877   4.886   1.148   2.832  0.6097  0.1924  0.2423
 2914SOL    HW2 8878   4.919   1.140   2.685 -2.4645 -0.9823 -0.4637
 2915SOL     OW 8879   0.076   2.056   0.453 -0.6436  0.0369 -0.2145
 2915SOL    HW1 8880   0.034   1.974   0.427  1.2783 -1.2208  0.4219
 2915SOL    HW2 8881   0.170   2.037   0.450 -0.1466  2.1304  0.2643
 2916SOL     OW 8882   0.938   1.208   1.861 -0.0827 -0.0968 -0.1427
 2916SOL    HW1 8883   0.993   1.261   1.804  0.4317  1.8807  2.0320
 2916SOL    HW2 8884   0.878   1.162   1.802 -0.8689  3.2747 -2.2025
 2917SOL     OW 8885   0.310   3.678   1.263 -0.0806  0.9080 -0.2659
 2917SOL    HW1 8886   0.367   3.606   1.291 -0.9154 -0.3053 -1.5233
 2917SOL    HW2 8887   0.226   3.659   1.304 -0.7950  0.1354 -1.9944
 2918SOL     OW 8888   1.101   4.940   1.868  0.3879  0.2242  0.4356
 2918SOL    HW1 8889   1.048   4.899   1.937 -1.4900 -0.9110 -1.5488
 2918SOL    HW2 8890   1.055   4.919   1.787  2.0613  2.1797 -1.1362
 2919SOL     OW 8891   3.964   1.610   2.835 -0.1744  0.3690 -0.7522
 2919SOL    HW1 8892   4.029   1.674   2.863  0.6582 -0.6467 -0.2550
 2919SOL    HW2 8893   3.897   1.612   2.903 -0.0286  0.5388 -0.6135
 2920SOL     OW 8894   2.376   4.681   1.302 -0.3670  0.1359  0.5185
 2920SOL    HW1 8895   2.380   4.618   1.230 -0.8326 -0.3191  0.8848
 2920SOL    HW2 8896   2.332   4.634   1.373  0.6412  0.3772  1.3153
 2921SOL     OW 8897   2.415   2.985   1.241 -0.7527  0.0056 -0.2127
 2921SOL    HW1 8898   2.453   2.907   1.279 -1.2487  0.2309  0.7751
 2921SOL    HW2 8899   2.323   2.983   1.269 -1.3796 -0.2628 -2.1023
 2922SOL     OW 8900   2.166   3.452   3.363  0.2691  0.1079  0.3051
 2922SOL    HW1 8901   2.130   3.383   3.420 -1.3027  0.9241  0.3702
 2922SOL    HW2 8902   2.089   3.501   3.334  1.2195  0.8768 -1.0096
 2923SOL     OW 8903   2.399   2.113   1.316  0.3272  0.4038  0.3018
 2923SOL    HW1 8904   2.387   2.034   1.262  1.1429  1.1008 -0.9397
 2923SOL    HW2 8905   2.313   2.127   1.357 -0.4690  0.1142 -1.1868
 2924SOL     OW 8906   1.311   3.047   2.971 -0.5074  0.3272 -0.1047
 2924SOL    HW1 8907   1.402   3.019   2.983 -0.3693  1.6190  2.4107
 2924SOL    HW2 8908   1.316   3.143   2.965 -1.5749  0.3284 -1.8730
 2925SOL     OW 8909   2.329   0.720   0.920 -0.4922 -0.1361  0.5088
 2925SOL    HW1 8910   2.326   0.646   0.981  0.5286 -0.2290  0.4684
 2925SOL    HW2 8911   2.244   0.762   0.929 -0.5957 -0.5305  1.5217
 2926SOL     OW 8912   4.372   2.001   0.624 -0.4627  0.2156  0.8620
 2926SOL    HW1 8913   4.427   1.923   0.614 -0.5347  0.1882  0.6783
 2926SOL    HW2 8914   4.283   1.970   0.610 -0.3454  0.6654 -1.0681
 2927SOL     OW 8915   1.226   0.772   3.641 -0.2098  0.1952 -0.0677
 2927SOL    HW1 8916   1.238   0.706   3.710 -0.1343 -0.1054 -0.3677
 2927SOL    HW2 8917   1.275   0.738   3.567 -0.8329  0.1959 -0.4845
 2928SOL     OW 8918   3.675   4.564  -0.004 -0.1060  0.3680  0.0557
 2928SOL    HW1 8919   3.629   4.593   0.074  0.7959 -2.1603  1.6454
 2928SOL    HW2 8920   3.758   4.613  -0.003 -0.9350  1.8615 -0.5383
 2929SOL     OW 8921   3.448   4.586   1.986  0.5870  0.6711  0.6371
 2929SOL    HW1 8922   3.388   4.594   2.060 -0.0092 -0.3599  0.2942
 2929SOL    HW2 8923   3.507   4.515   2.011  0.2991  0.2266  0.0943
 2930SOL     OW 8924   1.276   4.342   1.035 -0.5179  0.0833  0.0323
 2930SOL    HW1 8925   1.247   4.283   1.104  1.8257 -2.6178 -1.0757
 2930SOL    HW2 8926   1.207   4.338   0.969 -0.2300 -1.9783 -0.2328
 2931SOL     OW 8927   3.382   2.475   2.570 -0.1837  0.2243  0.2467
 2931SOL    HW1 8928   3.287   2.465   2.577 -0.0928 -0.3727  0.6687
 2931SOL    HW2 8929   3.416   2.387   2.584  0.4093  0.3524 -0.3695
 2932SOL     OW 8930   2.479   2.570   3.546  0.3891  0.7202  0.2675
 2932SOL    HW1 8931   2.386   2.590   3.560  0.8432  1.3734  2.8602
 2932SOL    HW2 8932   2.483   2.534   3.457 -2.5715 -0.8810  0.6735
 2933SOL     OW 8933   4.393   0.713   2.319 -0.0419 -0.0583  0.1663
 2933SOL    HW1 8934   4.323   0.660   2.280  1.2953 -1.1527 -0.8504
 2933SOL    HW2 8935   4.432   0.657   2.386 -1.1522  1.1594  1.9338
 2934SOL     OW 8936   3.279   1.456   1.863 -0.3213  0.2196 -0.6482
 2934SOL    HW1 8937   3.353   1.395   1.870 -0.6356 -0.0827  0.1346
 2934SOL    HW2 8938   3.305   1.516   1.793 -0.0077 -0.8143 -1.4569
 2935SOL     OW 8939   2.488   4.356   0.743 -0.2061  0.3895 -0.2734
 2935SOL    HW1 8940   2.485   4.362   0.648  0.5019 -0.9026 -0.4000
 2935SOL    HW2 8941   2.462   4.443   0.774  1.4732  1.4385 -1.6730
 2936SOL     OW 8942   2.434   0.587   3.878 -0.4387 -0.0566 -0.0344
 2936SOL    HW1 8943   2.470   0.657   3.823 -0.9114  1.2018  1.2118
 2936SOL    HW2 8944   2.343   0.578   3.849 -0.1456 -0.8164 -0.7958
 2937SOL     OW 8945   2.538   0.945   2.029  0.1858 -0.0857  0.7519
 2937SOL    HW1 8946   2.518   1.034   2.058  0.0094  0.4069 -0.7711
 2937SOL    HW2 8947   2.626   0.951   1.992  0.2376 -0.5880  0.7782
 2938SOL     OW 8948   0.329   4.289   4.858 -0.0898  0.5826  0.3310
 2938SOL    HW1 8949   0.272   4.362   4.833  1.4086  1.7517  0.1726
 2938SOL    HW2 8950   0.323   4.286   4.953 -0.1674  0.9217  0.3400
 2939SOL     OW 8951   4.293   4.856   1.348 -0.0787  0.3207 -0.3775
 2939SOL    HW1 8952   4.239   4.845   1.426  0.0326  0.3716 -0.2925
 2939SOL    HW2 8953   4.383   4.856   1.381 -0.0561  1.1056 -0.4081
 2940SOL     OW 8954   0.440   3.990   3.957 -0.3954  0.4259 -0.7059
 2940SOL    HW1 8955   0.382   3.914   3.966 -0.8589  0.8202 -0.2578
 2940SOL    HW2 8956   0.412   4.049   4.028 -0.6592  1.4146 -1.6085
 2941SOL     OW 8957   2.677   0.318   4.722  0.4346 -1.0176 -0.1760
 2941SOL    HW1 8958   2.743   0.270   4.773 -0.1546 -0.1828  1.4504
 2941SOL    HW2 8959   2.687   0.286   4.633 -0.0108 -4.2946  0.8105
 2942SOL     OW 8960   3.055   4.158   2.586  0.5790  0.2164 -0.3248
 2942SOL    HW1 8961   3.045   4.253   2.575 -1.9517  0.0308 -0.0192
 2942SOL    HW2 8962   3.056   4.146   2.681  1.6971 -0.0305 -0.3510
 2943SOL     OW 8963   1.242   0.443   3.122  0.3776  0.3787 -0.3648
 2943SOL    HW1 8964   1.318   0.385   3.131 -0.3900 -0.5430  0.2976
 2943SOL    HW2 8965   1.239   0.491   3.205 -0.9609 -1.0752  0.4545
 2944SOL     OW 8966   1.537   1.385   0.605  0.1074 -0.1643 -0.1461
 2944SOL    HW1 8967   1.566   1.476   0.612  1.4309 -0.5414 -0.4499
 2944SOL    HW2 8968   1.591   1.348   0.535 -1.0625 -0.9444 -0.6687
 2945SOL     OW 8969   4.823   1.024   0.668  0.6732  0.5400  0.3833
 2945SOL    HW1 8970   4.854   1.093   0.610 -2.9751  2.7828  0.7973
 2945SOL    HW2 8971   4.855   1.050   0.755  1.5008  0.1965  0.1948
 2946SOL     OW 8972   4.087   4.891   4.028  0.2404 -0.1388 -0.1428
 2946SOL    HW1 8973   4.162   4.941   3.993  0.0114  0.1979 -0.1585
 2946SOL    HW2 8974   4.060   4.940   4.105  0.4629 -0.6389  0.2547
 2947SOL     OW 8975   0.512   1.303   0.582 -0.5636  0.2533 -0.5708
 2947SOL    HW1 8976   0.436   1.247   0.592 -1.1074  0.9419 -0.7319
 2947SOL    HW2 8977   0.478   1.392   0.594 -0.5397  0.9082 -4.2498
 2948SOL     OW 8978   2.668   2.771   1.670 -0.1246  0.2701 -0.4074
 2948SOL    HW1 8979   2.637   2.830   1.739  0.8547  1.9239 -1.3050
 2948SOL    HW2 8980   2.756   2.802   1.651  0.2222 -1.2110 -1.2671
 2949SOL     OW 8981   1.688   4.962   2.384  0.0706  0.1781 -0.0745
 2949SOL    HW1 8982   1.672   4.871   2.359  1.2337 -0.2258  0.5803
 2949SOL    HW2 8983   1.680   5.011   2.302  1.1520 -0.7558 -0.7786
 2950SOL     OW 8984   3.871   1.642   3.436  0.2860 -0.3117 -0.3669
 2950SOL    HW1 8985   3.950   1.644   3.489  0.7496 -0.1391 -1.0545
 2950SOL    HW2 8986   3.814   1.709   3.475  1.8333  2.0142 -1.9166
 2951SOL     OW 8987   4.813   0.539   2.507 -0.4094  1.0306  0.6216
 2951SOL    HW1 8988   4.887   0.478   2.510 -1.5049 -0.4165 -0.5402
 2951SOL    HW2 8989   4.809   0.568   2.416 -2.2670 -0.2641  0.2293
 2952SOL     OW 8990   4.084   4.293   4.602 -0.8334  0.6069  0.1677
 2952SOL    HW1 8991   4.058   4.340   4.682  1.0769 -0.7803  1.7078
 2952SOL    HW2 8992   4.048   4.205   4.612  0.4442  0.0496  0.1487
 2953SOL     OW 8993   4.477   1.039   3.245  0.1952 -0.4036 -0.3677
 2953SOL    HW1 8994   4.428   1.090   3.309 -0.2268 -0.9510 -0.2427
 2953SOL    HW2 8995   4.519   0.970   3.296 -0.1666 -0.8602 -0.6833
 2954SOL     OW 8996   1.715   0.602   4.155 -0.2061 -0.0781 -0.0738
 2954SOL    HW1 8997   1.743   0.604   4.247  0.0826 -1.8061 -0.0841
 2954SOL    HW2 8998   1.722   0.692   4.126 -0.1033  0.4714  1.5474
 2955SOL     OW 8999   4.451   1.143   1.757 -0.2166  0.2484 -0.4692
 2955SOL    HW1 9000   4.444   1.168   1.849 -0.8768 -0.3081 -0.3621
 2955SOL    HW2 9001   4.423   1.220   1.708  0.7559  0.7696 -0.2316
 2956SOL     OW 9002   4.511   3.386   4.854  0.2253  0.0591 -0.5914
 2956SOL    HW1 9003   4.435   3.332   4.832  0.4823 -0.2259 -0.7930
 2956SOL    HW2 9004   4.477   3.452   4.914  0.3685 -1.9160  1.8784
 2957SOL     OW 9005   0.099   3.934   0.754  0.0375 -0.2939 -0.1005
 2957SOL    HW1 9006   0.108   3.890   0.669 -0.0630  1.1630 -0.9216
 2957SOL    HW2 9007   0.018   3.985   0.745  0.4068  0.4398  0.6046
 2958SOL     OW 9008   0.815   3.862   4.955  0.2106 -0.8061  0.6170
 2958SOL    HW1 9009   0.882   3.829   5.015  0.6101 -0.5904  0.2927
 2958SOL    HW2 9010   0.748   3.793   4.952  1.1312 -1.6832 -0.2184
 2959SOL     OW 9011   4.592   1.871   4.854 -0.2637  0.9214  0.6876
 2959SOL    HW1 9012   4.659   1.936   4.874 -0.5059  1.5287 -0.3960
 2959SOL    HW2 9013   4.510   1.920   4.854 -0.2145  1.2054 -2.5319
 2960SOL     OW 9014   2.950   0.097   3.549 -0.3174 -0.7025 -0.3266
 2960SOL    HW1 9015   2.879   0.162   3.549  0.8344  0.6088 -1.1428
 2960SOL    HW2 9016   2.992   0.107   3.634 -0.3545 -0.6097 -0.3185
 2961SOL     OW 9017   1.129   4.934   4.944 -0.6178  0.0459  0.2509
 2961SOL    HW1 9018   1.096   4.845   4.934 -0.2686 -0.0826  0.2145
 2961SOL    HW2 9019   1.058   4.981   4.988 -0.6285 -0.3692  0.6937
 2962SOL     OW 9020   1.700   3.367   4.612  0.6139 -0.3530  0.0445
 2962SOL    HW1 9021   1.642   3.439   4.588 -0.5783 -1.2689  0.0736
 2962SOL    HW2 9022   1.788   3.402   4.601  0.1525  0.0305 -3.3535
 2963SOL     OW 9023   3.685   4.612   2.523  0.3185  0.2495  0.6035
 2963SOL    HW1 9024   3.634   4.621   2.603 -0.6910 -0.1892  0.0300
 2963SOL    HW2 9025   3.620   4.612   2.453  1.2581  1.8513 -0.3255
 2964SOL     OW 9026   4.605   4.266   2.848  0.3149 -0.1270 -0.4694
 2964SOL    HW1 9027   4.634   4.272   2.939 -0.3102  0.7567 -0.3156
 2964SOL    HW2 9028   4.546   4.191   2.847  0.3061 -0.1254 -0.1477
 2965SOL     OW 9029   1.674   3.237   0.632  0.0063 -0.2523 -0.9277
 2965SOL    HW1 9030   1.749   3.181   0.612 -1.5041 -2.0447 -1.8755
 2965SOL    HW2 9031   1.622   3.237   0.552 -1.4007  0.2948 -0.0439
 2966SOL     OW 9032   3.477   4.217   3.638 -0.3557 -0.0810 -0.1919
 2966SOL    HW1 9033   3.550   4.277   3.654 -1.2242  1.3936 -1.4135
 2966SOL    HW2 9034   3.509   4.157   3.570  0.1817 -0.3679  0.3087
 2967SOL     OW 9035   3.815   2.688   3.932  0.3744  0.6569 -0.8999
 2967SOL    HW1 9036   3.901   2.665   3.898  0.5442 -2.1356  1.0978
 2967SOL    HW2 9037   3.831   2.715   4.023 -0.6988  1.6764 -0.9827
 2968SOL     OW 9038   0.866   3.124   1.168  0.4976  0.2308  0.6694
 2968SOL    HW1 9039   0.773   3.130   1.148  0.3508 -1.3150  0.7994
 2968SOL    HW2 9040   0.870   3.092   1.258  1.1527 -0.4043  0.4242
 2969SOL     OW 9041   4.004   3.903   0.286 -0.3903  0.0095  0.0273
 2969SOL    HW1 9042   3.993   3.813   0.315  1.2152  0.2078  1.4193
 2969SOL    HW2 9043   4.039   3.949   0.362 -2.0995  2.0603 -0.3421
 2970SOL     OW 9044   0.255   1.686   1.987 -0.0485 -0.1143 -0.3980
 2970SOL    HW1 9045   0.326   1.672   1.924  0.7148 -0.9209  0.6036
 2970SOL    HW2 9046   0.291   1.658   2.071 -1.2413  0.3716  0.3081
 2971SOL     OW 9047   1.610   0.916   1.939  0.1502 -0.5877  0.8854
 2971SOL    HW1 9048   1.628   0.823   1.932  1.4964 -0.3592  1.0066
 2971SOL    HW2 9049   1.679   0.950   1.996  0.7419  0.7574 -0.5375
 2972SOL     OW 9050   3.340   4.866   4.592 -0.0254 -0.3081 -0.1527
 2972SOL    HW1 9051   3.365   4.776   4.612  1.0136 -0.3268 -1.4376
 2972SOL    HW2 9052   3.417   4.904   4.550 -0.1382  1.4691  1.1371
 2973SOL     OW 9053   0.815   1.208   2.112 -0.3988 -0.1359 -0.2907
 2973SOL    HW1 9054   0.872   1.172   2.180 -0.3979  0.6475  0.1336
 2973SOL    HW2 9055   0.859   1.188   2.030  0.5525  0.5492  0.0377
 2974SOL     OW 9056   0.377   0.835   3.148  0.1547 -0.0220  0.1629
 2974SOL    HW1 9057   0.420   0.859   3.230  0.1969 -0.3591  0.2402
 2974SOL    HW2 9058   0.333   0.915   3.120 -0.4888 -0.1010  0.9058
 2975SOL     OW 9059   2.379   3.006   4.446  0.1800 -0.2205  0.1563
 2975SOL    HW1 9060   2.334   3.068   4.390 -0.4235 -0.8515 -0.0696
 2975SOL    HW2 9061   2.402   2.933   4.388  2.0484  0.3387  0.1230
 2976SOL     OW 9062   0.499   2.495   3.230  0.2970 -0.5281  0.2159
 2976SOL    HW1 9063   0.455   2.548   3.296  0.8417 -1.2828  1.2017
 2976SOL    HW2 9064   0.434   2.486   3.159 -0.4976 -0.1877  0.8865
 2977SOL     OW 9065   3.081   2.189   0.619  0.0354  0.3102  0.2252
 2977SOL    HW1 9066   3.039   2.104   0.632 -3.1515  1.5792 -0.9361
 2977SOL    HW2 9067   3.070   2.234   0.703  0.3558  0.1395  0.3605
 2978SOL     OW 9068   4.166   4.669   4.488 -0.4743  0.0796 -0.2238
 2978SOL    HW1 9069   4.209   4.718   4.418  1.0743 -0.9787 -0.0677
 2978SOL    HW2 9070   4.165   4.578   4.457  0.0308 -0.3733  0.9794
 2979SOL     OW 9071   2.289   1.685   0.177 -0.0818  0.1533  0.0276
 2979SOL    HW1 9072   2.271   1.777   0.194 -0.0365 -0.0331  1.1616
 2979SOL    HW2 9073   2.368   1.685   0.123 -1.2178  0.8335 -1.6969
 2980SOL     OW 9074   1.123   4.922   3.933 -0.0120 -0.6452 -0.8129
 2980SOL    HW1 9075   1.153   4.905   3.844  0.5160  0.3949 -0.8551
 2980SOL    HW2 9076   1.054   4.988   3.923  0.6998  0.1956 -0.4158
 2981SOL     OW 9077   3.484   1.906   0.405  0.0163  1.1138 -0.0813
 2981SOL    HW1 9078   3.390   1.901   0.427  0.3348  0.7814  1.3241
 2981SOL    HW2 9079   3.528   1.905   0.490  1.3048  1.3191 -0.7260
 2982SOL     OW 9080   1.799   3.880   0.818 -0.1200 -0.4067  0.4752
 2982SOL    HW1 9081   1.733   3.816   0.793 -0.4373  0.2812 -0.5071
 2982SOL    HW2 9082   1.859   3.884   0.743 -1.5095  2.2419 -0.6613
 2983SOL     OW 9083   1.613   0.099   1.576  0.1358  0.3391 -0.1018
 2983SOL    HW1 9084   1.594   0.007   1.596 -0.1326  0.5954  0.8421
 2983SOL    HW2 9085   1.527   0.142   1.575  0.3325  0.7557  0.3861
 2984SOL     OW 9086   1.421   1.234   0.273 -0.3424 -0.7821 -0.4126
 2984SOL    HW1 9087   1.492   1.205   0.329 -1.2196 -0.6418  0.8159
 2984SOL    HW2 9088   1.421   1.172   0.200  0.8322 -0.9556 -0.2808
 2985SOL     OW 9089   4.583   0.919   2.231  0.0580  1.0720 -0.3708
 2985SOL    HW1 9090   4.556   0.846   2.174 -1.0951  1.6521 -0.5947
 2985SOL    HW2 9091   4.640   0.878   2.296  0.3748  0.1724 -1.1830
 2986SOL     OW 9092   0.753   4.013   0.601  0.3862  1.1213 -0.1467
 2986SOL    HW1 9093   0.812   3.941   0.578  1.3900  1.8012  0.2489
 2986SOL    HW2 9094   0.747   4.065   0.521 -0.5522  0.4751 -0.5150
 2987SOL     OW 9095   3.963   4.439   0.947 -0.0482 -0.0821  0.6417
 2987SOL    HW1 9096   3.958   4.421   0.853 -0.6817  1.3742  0.3641
 2987SOL    HW2 9097   3.872   4.447   0.975  0.1256  2.2629  0.7631
 2988SOL     OW 9098   3.513   0.114   1.257  0.3279  0.0958 -0.1699
 2988SOL    HW1 9099   3.477   0.200   1.236 -0.6294  0.0573  1.1865
 2988SOL    HW2 9100   3.607   0.123   1.241  0.0497  0.9324 -1.4560
 2989SOL     OW 9101   4.835   4.645   0.642  0.2799 -0.3005  0.2305
 2989SOL    HW1 9102   4.852   4.705   0.714 -0.9675 -1.0317  1.1683
 2989SOL    HW2 9103   4.883   4.565   0.665 -3.5541 -2.2147  2.6728
 2990SOL     OW 9104   2.215   0.102   0.233  0.0092  0.0674 -0.4356
 2990SOL    HW1 9105   2.290   0.077   0.287 -0.0901 -1.4091 -0.9271
 2990SOL    HW2 9106   2.213   0.198   0.237  1.5494  0.1087  0.0876
 2991SOL     OW 9107   4.420   2.512   0.056 -1.1708  0.1856 -0.3152
 2991SOL    HW1 9108   4.330   2.481   0.043 -1.5987  1.3193 -0.1923
 2991SOL    HW2 9109   4.415   2.606   0.042  0.2347  0.1292 -1.5103
 2992SOL     OW 9110   1.814   4.221   1.044  0.6290  0.3048  0.7552
 2992SOL    HW1 9111   1.894   4.246   0.998  1.3333 -0.0561  1.7315
 2992SOL    HW2 9112   1.818   4.126   1.049 -0.9786  0.0776 -1.0947
 2993SOL     OW 9113   2.599   1.544   2.991  0.8416 -0.3348  0.8221
 2993SOL    HW1 9114   2.511   1.579   3.008  1.2011  2.8175 -2.6516
 2993SOL    HW2 9115   2.656   1.595   3.049  0.7542  0.8886 -0.1208
 2994SOL     OW 9116   4.049   1.303   0.702 -1.0381 -0.4061  0.4001
 2994SOL    HW1 9117   4.108   1.252   0.647 -1.1250  1.0473 -1.1285
 2994SOL    HW2 9118   3.962   1.286   0.667 -1.2654 -0.5476  1.0063
 2995SOL     OW 9119   0.945   1.689   3.943  0.2111  0.6801  0.3117
 2995SOL    HW1 9120   0.936   1.727   3.855 -0.5207  2.2354  1.0022
 2995SOL    HW2 9121   0.863   1.713   3.987  1.3881  1.7444  2.0566
 2996SOL     OW 9122   1.759   1.513   3.288 -0.1768  0.0505  0.1419
 2996SOL    HW1 9123   1.811   1.547   3.360  1.2052  1.1704 -1.2920
 2996SOL    HW2 9124   1.685   1.470   3.329  1.4190 -0.8374  2.2796
 2997SOL     OW 9125   4.262   0.171   1.847  0.0273  0.0103  0.6418
 2997SOL    HW1 9126   4.352   0.199   1.863  0.0862 -0.5873  1.4476
 2997SOL    HW2 9127   4.209   0.250   1.863  0.4502  0.5817 -0.6458
 2998SOL     OW 9128   4.241   4.776   4.224  0.5311 -0.3948  0.3197
 2998SOL    HW1 9129   4.217   4.757   4.134 -1.1457 -0.5579  0.7624
 2998SOL    HW2 9130   4.199   4.860   4.244  0.3937 -0.6382  1.1158
 2999SOL     OW 9131   4.848   1.262   0.868 -0.1417  0.3664  0.4106
 2999SOL    HW1 9132   4.876   1.315   0.793  1.2461  0.6989  1.1382
 2999SOL    HW2 9133   4.833   1.326   0.938 -1.3908  0.0513  0.4535
 3000SOL     OW 9134   2.087   4.466   1.622 -0.3658  0.2448  0.1242
 3000SOL    HW1 9135   2.173   4.444   1.659 -0.2147  1.2029  0.3887
 3000SOL    HW2 9136   2.024   4.423   1.681 -0.0877  0.3812  0.5287
 3001SOL     OW 9137   3.506   0.788   3.913 -0.4410  0.0992  0.1935
 3001SOL    HW1 9138   3.419   0.788   3.873 -1.8168  0.9720  2.9151
 3001SOL    HW2 9139   3.498   0.728   3.987  0.9321  0.9468  1.0713
 3002SOL     OW 9140   3.711   0.024   4.040 -0.4853  0.3077  0.0058
 3002SOL    HW1 9141   3.634   0.018   4.096 -1.7747 -0.2271 -1.7253
 3002SOL    HW2 9142   3.783  -0.012   4.093 -1.1386  1.8857  2.0777
 3003SOL     OW 9143   1.378   0.816   2.514  0.0572 -0.4815  0.3484
 3003SOL    HW1 9144   1.376   0.902   2.473 -1.7928  0.0112  1.3357
 3003SOL    HW2 9145   1.337   0.758   2.450 -0.3609 -0.2525  0.4035
 3004SOL     OW 9146   0.355   1.988   0.415 -0.1114  0.0062 -0.0199
 3004SOL    HW1 9147   0.352   1.937   0.334 -0.3371  1.7039 -1.1413
 3004SOL    HW2 9148   0.445   2.017   0.423 -0.3465  0.8821 -0.3775
 3005SOL     OW 9149   2.585   0.335   2.066  0.6592  0.3587 -0.2272
 3005SOL    HW1 9150   2.578   0.421   2.024  1.1026  0.7471  0.4798
 3005SOL    HW2 9151   2.497   0.317   2.098 -0.2431 -0.8783 -3.0499
 3006SOL     OW 9152   0.552   0.637   3.075 -0.4699 -0.3624  0.4989
 3006SOL    HW1 9153   0.481   0.686   3.117  0.2394 -0.7050  2.1489
 3006SOL    HW2 9154   0.625   0.643   3.136  1.4001  1.0710 -1.6928
 3007SOL     OW 9155   1.762   0.927   2.714  0.3240 -0.1906 -0.4561
 3007SOL    HW1 9156   1.855   0.949   2.715  0.7089 -1.6336 -1.3315
 3007SOL    HW2 9157   1.724   0.986   2.649  1.0157 -0.8932 -1.5314
 3008SOL     OW 9158   3.684   3.598   4.316 -0.1248  0.1722 -0.1603
 3008SOL    HW1 9159   3.767   3.638   4.341  0.0317 -0.4581  0.3383
 3008SOL    HW2 9160   3.627   3.610   4.392  0.0747 -0.9628  0.1927
 3009SOL     OW 9161   0.654   4.277   0.024  0.3236 -0.6144  0.5303
 3009SOL    HW1 9162   0.670   4.263   0.118 -3.0012  1.5202  1.6167
 3009SOL    HW2 9163   0.560   4.265   0.014  0.5910 -0.9307 -2.6342
 3010SOL     OW 9164   3.380   3.144   4.965  0.3539 -1.0497  0.3308
 3010SOL    HW1 9165   3.351   3.079   4.901  0.9072 -2.0350  1.0531
 3010SOL    HW2 9166   3.312   3.211   4.964 -0.6105 -2.0137  0.1121
 3011SOL     OW 9167   0.286   1.698   3.713 -0.0449 -0.1938  0.0539
 3011SOL    HW1 9168   0.361   1.648   3.746 -0.0245  0.2361  0.6811
 3011SOL    HW2 9169   0.326   1.773   3.668 -0.0858  0.7382  1.5019
 3012SOL     OW 9170   0.170   3.739   3.257  0.4916  0.3105  0.3184
 3012SOL    HW1 9171   0.128   3.731   3.343  0.6527  1.8716  0.5651
 3012SOL    HW2 9172   0.194   3.649   3.234 -1.1562 -0.3767  1.0883
 3013SOL     OW 9173   4.396   4.880   1.076 -0.1179 -0.2435  0.4605
 3013SOL    HW1 9174   4.392   4.875   1.171 -1.1514  0.9364  0.5108
 3013SOL    HW2 9175   4.489   4.891   1.056 -0.0739  1.7711  1.5048
 3014SOL     OW 9176   0.682   1.533   3.578 -0.1119  0.2752 -1.1745
 3014SOL    HW1 9177   0.685   1.440   3.598  0.0047  0.5221 -0.0022
 3014SOL    HW2 9178   0.752   1.571   3.630 -1.1802  1.2404 -0.4138
 3015SOL     OW 9179   3.920   1.849   0.237 -0.0507 -0.6518 -0.0858
 3015SOL    HW1 9180   3.964   1.802   0.166 -1.4318 -0.2250 -1.2675
 3015SOL    HW2 9181   3.882   1.926   0.194  0.9771  0.8303  1.5405
 3016SOL     OW 9182   1.032   4.229   2.261  0.3079  0.3835 -0.7256
 3016SOL    HW1 9183   1.087   4.299   2.296 -1.7542  1.6860  0.1115
 3016SOL    HW2 9184   0.981   4.271   2.191 -0.3633 -0.4926 -0.7813
 3017SOL     OW 9185   4.103   4.045   1.421  0.4549 -0.6242  0.5571
 3017SOL    HW1 9186   4.060   4.119   1.379 -0.0778  0.2418  2.5399
 3017SOL    HW2 9187   4.077   4.050   1.513  1.6625 -2.3735  1.0564
 3018SOL     OW 9188   1.515   3.773   1.390 -0.1847 -0.1486 -0.4070
 3018SOL    HW1 9189   1.587   3.835   1.377  0.1285 -0.1409  1.1173
 3018SOL    HW2 9190   1.519   3.715   1.314 -0.1174  1.3232 -1.5660
 3019SOL     OW 9191   0.347   0.253   2.797 -0.5255 -0.2704 -0.6287
 3019SOL    HW1 9192   0.259   0.221   2.819 -0.2388 -0.0701  0.9742
 3019SOL    HW2 9193   0.332   0.339   2.758 -1.0066  0.3693  0.8985
 3020SOL     OW 9194   4.930   4.960   2.233 -0.0459  0.4220  0.2966
 3020SOL    HW1 9195   4.861   4.898   2.260 -0.1072 -0.8241 -2.4509
 3020SOL    HW2 9196   5.002   4.942   2.294 -0.1174 -2.3307 -0.2665
 3021SOL     OW 9197   2.640   1.816   1.191  0.0371  0.4930  0.5006
 3021SOL    HW1 9198   2.690   1.823   1.272  0.6717  1.1635  0.0599
 3021SOL    HW2 9199   2.693   1.760   1.135  0.1181  0.8903  0.1736
 3022SOL     OW 9200   2.286   0.970   1.139  0.3046 -0.6244 -0.4819
 3022SOL    HW1 9201   2.285   0.905   1.209 -0.3837 -0.9537 -0.7876
 3022SOL    HW2 9202   2.246   0.925   1.064  0.7617 -0.1804 -0.9983
 3023SOL     OW 9203   0.489   3.962   0.207  0.0455  0.3734 -0.1123
 3023SOL    HW1 9204   0.462   3.897   0.142  1.4105  1.0723 -1.4325
 3023SOL    HW2 9205   0.488   3.915   0.290 -0.5315 -0.8881 -0.8126
 3024SOL     OW 9206   2.619   0.694   2.349 -0.0345 -0.1785  0.0311
 3024SOL    HW1 9207   2.553   0.695   2.280 -0.3102  0.4843  0.3008
 3024SOL    HW2 9208   2.569   0.685   2.430  0.3170 -1.6019  0.1267
 3025SOL     OW 9209   3.817   0.116   4.504  0.1660  0.0728 -0.1247
 3025SOL    HW1 9210   3.846   0.170   4.430  2.3272 -0.5493  0.2112
 3025SOL    HW2 9211   3.857   0.156   4.581 -2.2651  0.8622  0.8160
 3026SOL     OW 9212   0.847   3.445   2.024  0.1185 -0.1334 -0.0528
 3026SOL    HW1 9213   0.819   3.489   1.943  2.2908  0.8460 -0.3410
 3026SOL    HW2 9214   0.850   3.515   2.089 -1.2549 -0.8507  0.8319
 3027SOL     OW 9215   2.626   2.060   3.028 -0.5719  0.2092 -0.4854
 3027SOL    HW1 9216   2.677   2.040   2.949 -1.4409 -1.6284 -0.6446
 3027SOL    HW2 9217   2.685   2.039   3.100 -0.6145 -0.6113 -0.6715
 3028SOL     OW 9218   3.905   1.061   0.280  0.3905  0.0604 -0.2881
 3028SOL    HW1 9219   3.887   0.967   0.281  1.8126 -0.2431  0.7866
 3028SOL    HW2 9220   3.821   1.101   0.260 -0.0070 -1.4743 -1.9315
 3029SOL     OW 9221   4.392   1.541   1.941 -0.6005 -0.0112  0.8354
 3029SOL    HW1 9222   4.465   1.542   2.003 -0.6700 -0.1243  0.9198
 3029SOL    HW2 9223   4.327   1.600   1.979  0.0523  1.2985  0.0118
 3030SOL     OW 9224   0.358   3.358   0.911 -0.8168 -0.3917 -0.5013
 3030SOL    HW1 9225   0.382   3.448   0.932  0.3606  0.1154 -3.5080
 3030SOL    HW2 9226   0.413   3.305   0.969 -0.8028  0.7877  0.6237
 3031SOL     OW 9227   2.270   4.750   0.519 -0.4748  0.2753 -0.0784
 3031SOL    HW1 9228   2.191   4.695   0.513  1.1664 -2.3279  0.6634
 3031SOL    HW2 9229   2.288   4.777   0.429 -2.5911  1.6248 -0.1818
 3032SOL     OW 9230   0.721   3.770   4.149 -0.0105 -0.3113  0.2608
 3032SOL    HW1 9231   0.697   3.776   4.057  1.9285 -2.4515 -0.4930
 3032SOL    HW2 9232   0.731   3.676   4.166 -0.1461  0.0254  2.6239
 3033SOL     OW 9233   4.380   4.885   3.761  0.3742 -0.1428 -0.3039
 3033SOL    HW1 9234   4.349   4.963   3.809 -0.7300  0.3642 -1.7507
 3033SOL    HW2 9235   4.313   4.871   3.693  1.3850 -1.4014 -1.0855
 3034SOL     OW 9236   3.227   3.895   0.531 -0.3198 -0.9709  0.4168
 3034SOL    HW1 9237   3.277   3.946   0.468 -1.4576 -0.5640 -0.1868
 3034SOL    HW2 9238   3.201   3.959   0.598  1.3308 -1.4946  1.6419
 3035SOL     OW 9239   3.178   3.239   4.121 -0.6902 -0.4340  0.6247
 3035SOL    HW1 9240   3.207   3.283   4.041  0.4991 -0.1528  1.1933
 3035SOL    HW2 9241   3.105   3.293   4.152 -1.8242 -1.0991 -0.7700
 3036SOL     OW 9242   4.796   2.494   0.163 -0.3980  0.2822  0.3864
 3036SOL    HW1 9243   4.882   2.453   0.151  0.2331  1.2873  1.3170
 3036SOL    HW2 9244   4.742   2.455   0.094  0.2789 -1.7313  0.9170
 3037SOL     OW 9245   1.573   4.539   3.104  0.5532  0.4890 -0.4079
 3037SOL    HW1 9246   1.568   4.536   3.008  0.1222 -0.8117 -0.3607
 3037SOL    HW2 9247   1.505   4.480   3.134  1.3580  0.0785  0.6883
 3038SOL     OW 9248   2.790   2.797   2.258  0.3647 -0.0806 -0.7112
 3038SOL    HW1 9249   2.735   2.833   2.326 -1.6074 -0.4231 -2.0341
 3038SOL    HW2 9250   2.734   2.733   2.213  2.4699 -1.9191 -0.9037
 3039SOL     OW 9251   3.851   3.930   1.538  0.3121 -0.0421  0.5940
 3039SOL    HW1 9252   3.787   3.995   1.567  0.2808 -0.4825  1.5380
 3039SOL    HW2 9253   3.907   3.915   1.614  0.1713 -1.2826  0.4749
 3040SOL     OW 9254   4.502   4.093   3.741  0.2072  0.4876 -0.2431
 3040SOL    HW1 9255   4.482   4.048   3.823  0.4251 -0.4189 -0.6671
 3040SOL    HW2 9256   4.539   4.024   3.685  1.6524  1.4458 -0.5222
 3041SOL     OW 9257   2.224   4.565   2.390  0.2505  0.3246 -0.2056
 3041SOL    HW1 9258   2.130   4.569   2.377  0.0092  1.3349  1.4545
 3041SOL    HW2 9259   2.250   4.478   2.361 -1.2308 -0.0660 -0.3985
 3042SOL     OW 9260   1.740   0.610   4.434  0.1006 -0.1729 -0.1581
 3042SOL    HW1 9261   1.658   0.654   4.459 -0.0181 -0.2924 -0.3330
 3042SOL    HW2 9262   1.750   0.540   4.498 -1.9307 -2.5940 -2.3079
 3043SOL     OW 9263   4.252   0.571   1.405  0.0092 -0.3588  0.1505
 3043SOL    HW1 9264   4.188   0.516   1.451 -1.3537 -0.9517 -2.3034
 3043SOL    HW2 9265   4.209   0.656   1.397 -0.8672 -0.9370 -2.0805
 3044SOL     OW 9266   4.836   1.405   4.513 -0.4387 -0.2208 -0.0972
 3044SOL    HW1 9267   4.870   1.419   4.424  3.1780 -1.7351  0.8370
 3044SOL    HW2 9268   4.845   1.311   4.527 -0.8146  0.0074  1.8920
 3045SOL     OW 9269   1.393   1.980   3.684 -0.3361 -0.0020  0.6397
 3045SOL    HW1 9270   1.360   1.968   3.594  0.8304  1.8434 -0.0983
 3045SOL    HW2 9271   1.326   2.034   3.726 -0.7340 -0.6057  0.7882
 3046SOL     OW 9272   1.758   4.559   3.834  0.5107 -0.1110  0.5476
 3046SOL    HW1 9273   1.708   4.617   3.776 -0.8152 -0.9411  0.7973
 3046SOL    HW2 9274   1.701   4.482   3.845  1.4186 -0.6536  1.6761
 3047SOL     OW 9275   2.557   3.352   3.185 -0.6830 -0.4008 -0.4596
 3047SOL    HW1 9276   2.611   3.418   3.229 -1.8586  0.4362 -0.2418
 3047SOL    HW2 9277   2.618   3.306   3.128  0.4302 -0.0369  0.3952
 3048SOL     OW 9278   1.226   1.096   1.354  0.9842  0.0608  0.6718
 3048SOL    HW1 9279   1.314   1.062   1.374  1.5973  0.9482 -0.4180
 3048SOL    HW2 9280   1.241   1.183   1.318 -0.3178  0.0405  0.0104
 3049SOL     OW 9281   4.951   5.019   3.931  0.1270  0.4174 -0.2975
 3049SOL    HW1 9282   4.877   5.050   3.983  0.4343  0.5208  0.0809
 3049SOL    HW2 9283   4.964   4.928   3.959  0.9280  0.7743  0.5496
 3050SOL     OW 9284   3.796   4.183   1.265  0.0818 -0.8449  0.3905
 3050SOL    HW1 9285   3.842   4.232   1.333  0.5096  1.1860 -1.2583
 3050SOL    HW2 9286   3.765   4.250   1.204 -3.1496 -2.2883  0.2446
 3051SOL     OW 9287   3.859   3.326   3.510 -0.0458 -0.6471 -0.0916
 3051SOL    HW1 9288   3.930   3.282   3.556  0.0921  0.2339  0.5610
 3051SOL    HW2 9289   3.901   3.368   3.435 -0.0613 -1.0012 -0.3031
 3052SOL     OW 9290   4.533   1.224   1.056  0.1293 -0.3207  0.0685
 3052SOL    HW1 9291   4.446   1.196   1.084 -0.4464  0.4525 -0.8876
 3052SOL    HW2 9292   4.587   1.146   1.066 -0.5042 -0.6246  1.3247
 3053SOL     OW 9293   2.206   4.272   0.451 -0.4719  0.3592  0.6427
 3053SOL    HW1 9294   2.258   4.210   0.501 -0.0740 -1.0187 -1.3471
 3053SOL    HW2 9295   2.166   4.220   0.382 -1.6595  2.0129  0.0101
 3054SOL     OW 9296   2.755   4.603   2.222 -0.2119 -0.1742  0.5173
 3054SOL    HW1 9297   2.803   4.569   2.297  1.0409 -0.1839 -0.2605
 3054SOL    HW2 9298   2.663   4.593   2.246  0.1601 -0.5627  1.8676
 3055SOL     OW 9299   3.210   2.362   1.075 -0.1337  0.0210  0.4754
 3055SOL    HW1 9300   3.246   2.378   1.162  0.5425  0.8000  0.0709
 3055SOL    HW2 9301   3.212   2.448   1.032 -1.1450 -0.2135 -0.0558
 3056SOL     OW 9302   0.080   2.766   3.291  0.3673 -0.0822 -0.2767
 3056SOL    HW1 9303  -0.008   2.775   3.255  0.1488  0.3204  0.3378
 3056SOL    HW2 9304   0.110   2.856   3.304  0.6677 -0.2179 -0.0095
 3057SOL     OW 9305   1.128   1.762   3.322  0.1232 -0.6850 -1.0712
 3057SOL    HW1 9306   1.117   1.697   3.253  1.9916 -1.9667 -0.2460
 3057SOL    HW2 9307   1.218   1.794   3.310  0.5581 -1.0760  0.8359
 3058SOL     OW 9308   0.207   2.248   3.003  0.1281  0.1031  0.1689
 3058SOL    HW1 9309   0.273   2.209   3.061 -0.1032  0.7014  0.8466
 3058SOL    HW2 9310   0.197   2.184   2.932  1.8253  0.2362 -0.2337
 3059SOL     OW 9311   2.325   2.558   4.509  0.6681 -0.3015 -0.0779
 3059SOL    HW1 9312   2.391   2.489   4.504  0.8276 -0.1149 -0.6188
 3059SOL    HW2 9313   2.340   2.611   4.431 -0.0245 -0.1710 -0.1297
 3060SOL     OW 9314   3.159   2.793   4.096 -0.3330  0.1872  0.3652
 3060SOL    HW1 9315   3.243   2.777   4.140 -0.1773  2.0301  0.8382
 3060SOL    HW2 9316   3.162   2.736   4.019 -1.0015 -3.8620  3.0134
 3061SOL     OW 9317   2.331   1.396   3.704  0.2714  0.2743  0.7932
 3061SOL    HW1 9318   2.329   1.429   3.794  0.3070 -1.5628  1.5215
 3061SOL    HW2 9319   2.374   1.311   3.711  1.1616  0.5102 -1.1354
 3062SOL     OW 9320   0.295   1.638   3.003 -0.1714 -1.1358  0.1720
 3062SOL    HW1 9321   0.266   1.549   3.023  0.6501 -1.1517  1.3528
 3062SOL    HW2 9322   0.383   1.628   2.968 -0.6249 -0.8824 -1.1332
 3063SOL     OW 9323   4.474   2.722   1.470 -0.2368  0.2607  0.2286
 3063SOL    HW1 9324   4.417   2.711   1.393  2.0651 -0.3822 -1.4832
 3063SOL    HW2 9325   4.426   2.679   1.541 -1.4457 -1.1469 -1.3491
 3064SOL     OW 9326   2.025   0.774   0.370  0.1678 -0.0924  0.0601
 3064SOL    HW1 9327   1.948   0.825   0.396 -0.3099 -0.7037 -0.1348
 3064SOL    HW2 9328   2.072   0.830   0.308  0.1452  0.4804  0.5473
 3065SOL     OW 9329   1.062   2.993   3.457  0.0308 -0.0273  0.0250
 3065SOL    HW1 9330   1.141   2.976   3.407  0.1065 -0.8012  0.3937
 3065SOL    HW2 9331   0.993   2.943   3.413 -0.5974  1.7725 -1.1575
 3066SOL     OW 9332   0.551   1.333   0.204 -0.0667 -0.0408 -0.1435
 3066SOL    HW1 9333   0.547   1.239   0.221 -0.4249  0.3519  2.4176
 3066SOL    HW2 9334   0.513   1.373   0.282  0.4359  2.2606 -0.9871
 3067SOL     OW 9335   2.328   3.194   4.275  0.0219 -0.2168 -0.4264
 3067SOL    HW1 9336   2.393   3.181   4.206 -0.2966 -1.8956 -0.4626
 3067SOL    HW2 9337   2.245   3.165   4.235 -0.6053  1.0752 -0.1047
 3068SOL     OW 9338   0.621   3.320   2.016 -0.7012  0.2871  0.0796
 3068SOL    HW1 9339   0.602   3.336   1.923 -0.7529 -0.4694 -0.0397
 3068SOL    HW2 9340   0.713   3.345   2.026 -0.9845  1.4059  0.0740
 3069SOL     OW 9341   3.521   2.293   1.194  0.1661 -0.7884 -0.4273
 3069SOL    HW1 9342   3.449   2.353   1.174 -0.7925 -0.6249  3.0102
 3069SOL    HW2 9343   3.600   2.345   1.178 -0.6020  0.6427  0.2175
 3070SOL     OW 9344   2.972   4.007   4.002  0.2920 -0.6395  0.0492
 3070SOL    HW1 9345   3.011   3.928   4.039  1.3364 -0.8142 -1.3353
 3070SOL    HW2 9346   3.012   4.078   4.052  1.9672 -0.8544 -0.9113
 3071SOL     OW 9347   2.499   1.680   3.790  0.0421 -0.1684  0.0708
 3071SOL    HW1 9348   2.461   1.654   3.706  1.7712  0.9575 -1.1242
 3071SOL    HW2 9349   2.457   1.623   3.854 -0.5457 -1.8103 -1.6877
 3072SOL     OW 9350   2.323   2.193   2.868 -1.0171 -0.6721  0.1345
 3072SOL    HW1 9351   2.372   2.180   2.948 -1.4522 -2.1449  0.1974
 3072SOL    HW2 9352   2.290   2.106   2.845  0.6080 -0.6859 -2.6429
 3073SOL     OW 9353   0.051   4.545   4.549  0.5047  0.1029  0.1921
 3073SOL    HW1 9354  -0.009   4.533   4.475  1.3369  3.6509 -1.3129
 3073SOL    HW2 9355   0.019   4.624   4.592  3.7318  1.9619 -0.4882
 3074SOL     OW 9356   0.676  -0.016   3.621  0.3574 -0.7227  0.4499
 3074SOL    HW1 9357   0.720  -0.047   3.541 -1.9179 -0.6416 -0.9405
 3074SOL    HW2 9358   0.688   0.079   3.619  0.9230 -0.7877  0.6069
 3075SOL     OW 9359   3.224   1.658   3.775 -0.1643 -0.4743  0.0830
 3075SOL    HW1 9360   3.318   1.643   3.785  0.0734  0.1961 -1.0140
 3075SOL    HW2 9361   3.211   1.670   3.681 -0.7725  2.9825  0.4897
 3076SOL     OW 9362   3.372   2.332   1.787  0.2782 -0.3926 -0.6843
 3076SOL    HW1 9363   3.425   2.390   1.733 -0.2999  0.4379 -0.3746
 3076SOL    HW2 9364   3.434   2.268   1.822  1.5636  1.9714  1.6621
 3077SOL     OW 9365   0.304   2.632   1.127 -0.6150  0.4786 -0.0360
 3077SOL    HW1 9366   0.215   2.599   1.137 -0.8811  1.3639  0.5506
 3077SOL    HW2 9367   0.304   2.718   1.169  0.9855 -0.2872  1.6940
 3078SOL     OW 9368   1.726   2.766   3.196  0.2092 -0.0116  0.2616
 3078SOL    HW1 9369   1.739   2.858   3.220  0.4797 -0.2008  0.8495
 3078SOL    HW2 9370   1.737   2.718   3.278  1.8552 -0.7460 -0.3415
 3079SOL     OW 9371   0.790   2.646   4.377  0.2454  1.2475 -0.3327
 3079SOL    HW1 9372   0.875   2.681   4.406  0.5465  0.7566 -0.6189
 3079SOL    HW2 9373   0.753   2.605   4.455  0.6355  0.7516 -0.4048
 3080SOL     OW 9374   4.994   3.389   0.390  0.1902  0.7015  0.1239
 3080SOL    HW1 9375   4.899   3.386   0.378  0.1937 -0.8856  0.3063
 3080SOL    HW2 9376   5.025   3.452   0.324 -0.8837  0.4874 -0.6061
 3081SOL     OW 9377   1.557   3.465   1.378  0.3711 -0.1208  0.4462
 3081SOL    HW1 9378   1.591   3.548   1.412 -1.6359  1.2649 -0.7413
 3081SOL    HW2 9379   1.559   3.475   1.283 -2.0440 -0.4745  0.2986
 3082SOL     OW 9380   3.708   3.927   1.837  0.2798 -0.1655 -0.2032
 3082SOL    HW1 9381   3.684   4.007   1.791 -0.7159 -0.7855 -0.7933
 3082SOL    HW2 9382   3.674   3.856   1.782 -0.5572 -0.9336  1.2369
 3083SOL     OW 9383   1.056   0.568   2.137 -0.0577 -0.3667  0.1036
 3083SOL    HW1 9384   1.030   0.513   2.064 -1.0646 -0.5889  0.6163
 3083SOL    HW2 9385   1.024   0.656   2.114  0.9795 -0.1011 -0.4132
 3084SOL     OW 9386   4.048   2.463   3.865  0.1447  0.0075  0.5339
 3084SOL    HW1 9387   4.122   2.519   3.841  1.2053 -1.0351  1.2812
 3084SOL    HW2 9388   4.042   2.471   3.960 -0.5053 -0.1861  0.5172
 3085SOL     OW 9389   2.878   1.046   0.447 -0.0304 -0.2170  0.3070
 3085SOL    HW1 9390   2.905   0.969   0.398 -1.3877 -1.3942  1.3174
 3085SOL    HW2 9391   2.823   1.096   0.386  1.3098  0.2677 -0.5307
 3086SOL     OW 9392   3.243   4.306   4.863 -0.5870 -0.1556 -0.3077
 3086SOL    HW1 9393   3.179   4.377   4.868 -0.8123 -0.4401  2.9358
 3086SOL    HW2 9394   3.326   4.345   4.889 -0.2867 -0.6330 -0.5269
 3087SOL     OW 9395   0.210   0.764   4.729  0.1341 -0.2749  0.3392
 3087SOL    HW1 9396   0.277   0.808   4.782 -1.0951  0.0169  1.7395
 3087SOL    HW2 9397   0.222   0.671   4.747 -0.5059 -0.1573  1.4726
 3088SOL     OW 9398   0.270   2.023  -0.024  0.1136 -0.1010  0.3804
 3088SOL    HW1 9399   0.281   2.057   0.065 -0.3739 -0.0595  0.4288
 3088SOL    HW2 9400   0.234   1.936  -0.012 -2.2983  0.7862  0.2109
 3089SOL     OW 9401   1.907   0.647   1.530 -0.5796 -0.2050 -0.3094
 3089SOL    HW1 9402   1.899   0.552   1.531  0.7130 -0.4176 -3.1349
 3089SOL    HW2 9403   1.816   0.678   1.531 -1.0186 -1.4408  0.4886
 3090SOL     OW 9404   4.572   1.438   0.185  0.0260 -0.2696 -0.5941
 3090SOL    HW1 9405   4.511   1.365   0.193 -0.4878  0.3902  3.6272
 3090SOL    HW2 9406   4.517   1.516   0.198  1.0840  0.6767 -1.5904
 3091SOL     OW 9407   3.030   1.633   0.573  0.3019  0.5627 -0.0343
 3091SOL    HW1 9408   2.981   1.552   0.588  0.0072  0.8356  0.5071
 3091SOL    HW2 9409   3.070   1.621   0.487  1.4992 -0.7857  0.6674
 3092SOL     OW 9410   0.525   3.146   0.547 -0.5782  0.1551  0.2666
 3092SOL    HW1 9411   0.593   3.080   0.559 -0.0894  0.7129  0.5736
 3092SOL    HW2 9412   0.499   3.138   0.455 -1.3711 -1.2742  0.5797
 3093SOL     OW 9413   4.845   4.379   0.802 -0.4453  0.7422 -0.5971
 3093SOL    HW1 9414   4.803   4.409   0.883  0.4674  0.6670 -0.0764
 3093SOL    HW2 9415   4.939   4.387   0.820 -0.2274  0.2186 -1.4616
 3094SOL     OW 9416   0.806   3.518   1.500  0.3235 -0.5150 -0.4237
 3094SOL    HW1 9417   0.883   3.495   1.551  0.1115 -1.8659 -0.6761
 3094SOL    HW2 9418   0.778   3.436   1.460 -1.8665 -0.3047  0.5027
 3095SOL     OW 9419   1.790   1.360   4.921 -0.9091  0.0299 -0.6025
 3095SOL    HW1 9420   1.775   1.300   4.848  2.4594  0.5654 -1.9168
 3095SOL    HW2 9421   1.840   1.432   4.884  1.2547  0.1728  2.2104
 3096SOL     OW 9422   3.731   4.191   0.286  0.2738  0.3540 -0.1426
 3096SOL    HW1 9423   3.659   4.181   0.223  0.6930 -2.0341 -0.3506
 3096SOL    HW2 9424   3.690   4.181   0.372  0.3331 -1.2548 -0.2699
 3097SOL     OW 9425   0.749   0.779   2.322 -0.7261  0.5502 -0.6962
 3097SOL    HW1 9426   0.728   0.765   2.229  0.2255  1.5993 -1.0852
 3097SOL    HW2 9427   0.842   0.803   2.323 -0.0460 -1.8113  0.7709
 3098SOL     OW 9428   1.859   1.223   1.462  0.3409  0.1337  0.4525
 3098SOL    HW1 9429   1.837   1.308   1.424 -0.9128 -0.6037 -0.5557
 3098SOL    HW2 9430   1.941   1.198   1.418 -0.3459 -0.0587 -0.7533
 3099SOL     OW 9431   1.834   2.301   4.576  0.0149 -0.5651 -0.5777
 3099SOL    HW1 9432   1.833   2.211   4.545 -0.3558 -0.2251 -1.5935
 3099SOL    HW2 9433   1.851   2.353   4.498  1.2715  0.1897  0.1579
 3100SOL     OW 9434   1.883   0.350   4.826  1.0911  0.1835  0.6197
 3100SOL    HW1 9435   1.909   0.284   4.890  0.7519  0.4694  1.0673
 3100SOL    HW2 9436   1.860   0.426   4.880  1.0360  0.5086  0.1380
 3101SOL     OW 9437   1.159   4.210   3.386  0.0668 -0.2161  0.2465
 3101SOL    HW1 9438   1.188   4.138   3.442 -2.6840 -1.0744  0.7233
 3101SOL    HW2 9439   1.073   4.234   3.421 -0.5527  1.0505 -1.9683
 3102SOL     OW 9440   2.371   2.265   1.860 -0.2898  0.5046  0.0715
 3102SOL    HW1 9441   2.453   2.223   1.836 -0.2635  1.5401 -1.8019
 3102SOL    HW2 9442   2.380   2.284   1.954  0.6346 -1.4519  0.4247
 3103SOL     OW 9443   2.610   3.421   0.093 -0.4621  0.1148 -0.2568
 3103SOL    HW1 9444   2.640   3.340   0.134 -3.1376 -0.2319  1.2672
 3103SOL    HW2 9445   2.689   3.460   0.056  1.4578 -1.6060  1.7510
 3104SOL     OW 9446   4.073   2.073   4.028 -0.5008  0.5501  0.0108
 3104SOL    HW1 9447   4.024   2.125   4.092 -0.1432 -1.5250  2.1015
 3104SOL    HW2 9448   4.006   2.039   3.969 -1.0558  1.1009  0.3124
 3105SOL     OW 9449   3.461   4.767   0.934 -0.6081 -0.7083 -0.1593
 3105SOL    HW1 9450   3.541   4.729   0.968 -0.9444  0.7468  2.5593
 3105SOL    HW2 9451   3.469   4.861   0.952 -1.5049 -0.0222 -2.9175
 3106SOL     OW 9452   0.529   2.759   1.637 -0.0164 -0.3675  0.2858
 3106SOL    HW1 9453   0.611   2.779   1.683 -0.4855  1.4468  0.4318
 3106SOL    HW2 9454   0.524   2.827   1.569 -1.7887  0.0534  0.8017
 3107SOL     OW 9455   3.649   4.540   3.075  0.5166  0.3382 -0.0078
 3107SOL    HW1 9456   3.724   4.545   3.134  0.3371  0.2051  0.2391
 3107SOL    HW2 9457   3.603   4.460   3.103 -0.0408  0.7428  0.2350
 3108SOL     OW 9458   0.266   3.847   4.413 -0.1657  0.3746 -0.0666
 3108SOL    HW1 9459   0.317   3.920   4.448  0.6612  0.5802 -1.5997
 3108SOL    HW2 9460   0.326   3.802   4.353 -0.7766 -1.3492  0.5544
 3109SOL     OW 9461   0.598   1.377   3.203 -0.1820 -0.6064 -0.3754
 3109SOL    HW1 9462   0.685   1.413   3.185 -0.8103  0.4809 -1.4269
 3109SOL    HW2 9463   0.565   1.429   3.276 -0.7658  0.4908 -1.3698
 3110SOL     OW 9464   2.437   0.622   1.508 -0.4489 -0.1552 -0.1041
 3110SOL    HW1 9465   2.428   0.700   1.563  1.3081 -0.5138  0.7616
 3110SOL    HW2 9466   2.441   0.550   1.571  1.7417 -0.5672 -0.6284
 3111SOL     OW 9467   4.483   3.899   4.262  0.0364 -0.5872  0.5115
 3111SOL    HW1 9468   4.533   3.980   4.259  0.9065 -1.1406 -1.5169
 3111SOL    HW2 9469   4.411   3.918   4.324  0.3890  1.5953  0.3426
 3112SOL     OW 9470   3.120   4.107   0.088 -0.2740  0.0477  0.1900
 3112SOL    HW1 9471   3.211   4.096   0.060 -0.5242  0.4207 -0.8169
 3112SOL    HW2 9472   3.126   4.127   0.182  0.4850 -3.3955  1.0214
 3113SOL     OW 9473   1.490   0.880   2.758  0.3051 -0.7971 -0.4983
 3113SOL    HW1 9474   1.585   0.887   2.768  0.2568 -1.5785  0.7046
 3113SOL    HW2 9475   1.477   0.856   2.666  1.1991  0.3058 -0.9341
 3114SOL     OW 9476   3.178   1.899   3.945 -0.0523  0.5530 -0.0693
 3114SOL    HW1 9477   3.146   1.815   3.913 -1.2254  1.0270 -0.1860
 3114SOL    HW2 9478   3.188   1.887   4.039 -3.0580  1.0775  0.4308
 3115SOL     OW 9479   4.239   4.614   0.943 -0.0141 -0.3713  0.2103
 3115SOL    HW1 9480   4.181   4.538   0.945 -0.2291 -0.1977  1.3880
 3115SOL    HW2 9481   4.277   4.616   1.031 -0.6497  1.3599  0.4699
 3116SOL     OW 9482   0.693   0.918   3.112  0.5869 -0.4202 -0.0237
 3116SOL    HW1 9483   0.764   0.862   3.141  0.8607  0.2355  0.6072
 3116SOL    HW2 9484   0.720   1.007   3.138 -0.2569 -0.1147 -0.1547
 3117SOL     OW 9485   4.024   4.618   4.727 -0.2982  0.2937  0.2679
 3117SOL    HW1 9486   4.051   4.649   4.641 -1.1398 -1.3650 -0.6390
 3117SOL    HW2 9487   4.106   4.615   4.778  0.1255  1.7705 -0.2844
 3118SOL     OW 9488   4.861   2.423   2.200  0.1933  0.9296 -0.6037
 3118SOL    HW1 9489   4.933   2.441   2.139 -0.1627  1.6268 -0.8259
 3118SOL    HW2 9490   4.782   2.424   2.146  0.1700 -2.3760 -0.8515
 3119SOL     OW 9491   3.958   0.266   4.003  0.6638 -0.3817 -0.0816
 3119SOL    HW1 9492   3.995   0.330   3.941  0.7193  1.7781  2.0189
 3119SOL    HW2 9493   3.866   0.291   4.011  0.2884 -1.6238 -0.4369
 3120SOL     OW 9494   1.667   3.694   2.501 -0.3603  0.3742 -0.0640
 3120SOL    HW1 9495   1.677   3.601   2.480 -1.1495  0.4805 -1.0005
 3120SOL    HW2 9496   1.751   3.733   2.479 -0.0828 -0.0818  0.1581
 3121SOL     OW 9497   1.801   3.215   2.623  0.1280 -0.0571 -0.4487
 3121SOL    HW1 9498   1.774   3.251   2.539  0.3754  0.3223 -0.3678
 3121SOL    HW2 9499   1.844   3.288   2.668  0.1611 -0.3075 -0.0686
 3122SOL     OW 9500   4.967   4.306   4.049 -0.3113  0.1549 -0.6887
 3122SOL    HW1 9501   4.967   4.237   3.983 -0.7942 -0.0896 -0.4417
 3122SOL    HW2 9502   5.010   4.266   4.125  0.5748  0.5524 -0.9621
 3123SOL     OW 9503   1.815   3.632   0.128 -0.6567  0.2501 -0.0372
 3123SOL    HW1 9504   1.744   3.693   0.106 -0.5652 -0.0750 -1.3186
 3123SOL    HW2 9505   1.854   3.609   0.043 -0.8853 -1.8097  0.3591
 3124SOL     OW 9506   1.476   3.284   0.914 -0.2764 -0.4945 -0.1320
 3124SOL    HW1 9507   1.515   3.290   1.001  0.1133 -1.2109 -0.2510
 3124SOL    HW2 9508   1.501   3.366   0.871  0.0999 -0.4329  0.1974
 3125SOL     OW 9509   2.850   2.459   4.365 -0.1850 -0.0264 -0.1944
 3125SOL    HW1 9510   2.917   2.469   4.298 -2.0659 -2.5940 -2.6692
 3125SOL    HW2 9511   2.779   2.515   4.337 -0.8820 -0.9112 -0.2497
 3126SOL     OW 9512   3.182   0.014   0.455  0.1823 -0.2101 -0.4357
 3126SOL    HW1 9513   3.257  -0.005   0.399  0.7124  1.4534 -0.3500
 3126SOL    HW2 9514   3.157   0.104   0.432 -2.5013 -1.0608 -1.2356
 3127SOL     OW 9515   0.348   3.484   2.204 -0.1046 -0.8693  0.1707
 3127SOL    HW1 9516   0.373   3.418   2.268  0.4415  0.5114  1.4407
 3127SOL    HW2 9517   0.411   3.555   2.216 -1.5803  0.5464 -0.0538
 3128SOL     OW 9518   1.523   1.815   1.291 -0.2429  0.4909  0.3885
 3128SOL    HW1 9519   1.477   1.897   1.308 -0.1988  1.2046 -2.4634
 3128SOL    HW2 9520   1.590   1.838   1.227 -0.5102 -1.8335 -0.8103
 3129SOL     OW 9521   0.780   1.030   3.707  0.2166  0.0804 -0.1216
 3129SOL    HW1 9522   0.749   1.079   3.783 -0.8740 -0.7699  0.0256
 3129SOL    HW2 9523   0.855   0.981   3.739 -0.0062  0.0146  0.3151
 3130SOL     OW 9524   2.864   1.672   0.935 -0.4585 -0.0962  0.1303
 3130SOL    HW1 9525   2.905   1.633   1.013  0.1774 -1.4611 -0.8464
 3130SOL    HW2 9526   2.935   1.678   0.871 -0.9513  1.0991 -0.3362
 3131SOL     OW 9527   0.522   4.214   0.432  0.2355  0.1342 -0.4968
 3131SOL    HW1 9528   0.478   4.190   0.514 -0.7387  2.6292 -0.1974
 3131SOL    HW2 9529   0.452   4.216   0.367  1.0319 -2.0044 -1.5152
 3132SOL     OW 9530   1.395   2.233   1.866 -0.2363 -0.2163  0.0797
 3132SOL    HW1 9531   1.454   2.215   1.792 -0.7777 -0.6909 -0.2472
 3132SOL    HW2 9532   1.425   2.174   1.935  1.0342  1.0705  0.6775
 3133SOL     OW 9533   0.548   4.988   4.301 -0.1264  0.8564 -0.3537
 3133SOL    HW1 9534   0.596   5.061   4.263  1.6964  0.1865  0.5531
 3133SOL    HW2 9535   0.600   4.910   4.281 -0.2356  0.2251  1.5785
 3134SOL     OW 9536   4.954   4.347   0.346 -0.4963 -0.0760  0.3382
 3134SOL    HW1 9537   4.896   4.319   0.417 -0.5094 -0.8787  0.0281
 3134SOL    HW2 9538   4.898   4.349   0.268  0.0232 -1.6158 -0.1145
 3135SOL     OW 9539   2.170   1.669   1.170  0.9108 -0.5531  0.2371
 3135SOL    HW1 9540   2.178   1.618   1.250  2.4428  1.9647  1.8077
 3135SOL    HW2 9541   2.209   1.614   1.102  2.8958 -1.3044  1.9118
 3136SOL     OW 9542   0.551   3.635   2.306 -0.4702  0.3629  0.4413
 3136SOL    HW1 9543   0.595   3.662   2.387  0.6202 -2.6977  1.0041
 3136SOL    HW2 9544   0.581   3.545   2.292 -5.1205 -1.3347 -0.2116
 3137SOL     OW 9545   0.768   0.624   2.690  0.4156  0.4432  0.1588
 3137SOL    HW1 9546   0.851   0.595   2.651 -0.1588  0.8087 -1.4210
 3137SOL    HW2 9547   0.777   0.719   2.699  0.1946  0.4769  0.0349
 3138SOL     OW 9548   4.825   4.024   1.203 -0.0250  0.0427 -0.7349
 3138SOL    HW1 9549   4.878   3.945   1.203  0.5524  0.4015  0.5528
 3138SOL    HW2 9550   4.861   4.077   1.132  2.1224  0.7291  0.7581
 3139SOL     OW 9551   4.027   2.544   4.708  0.1740 -0.2660  0.0467
 3139SOL    HW1 9552   4.055   2.480   4.773  1.3549  1.1421  1.0059
 3139SOL    HW2 9553   4.100   2.607   4.704 -0.1031  0.0029 -2.2432
 3140SOL     OW 9554   2.448   2.301   4.563 -0.1733  0.3837  0.1843
 3140SOL    HW1 9555   2.491   2.220   4.590  0.9169  1.0452  0.5139
 3140SOL    HW2 9556   2.359   2.275   4.540  0.3072 -0.9913 -0.2196
 3141SOL     OW 9557   4.984   4.750   0.335  0.2726 -0.2777 -0.2321
 3141SOL    HW1 9558   4.991   4.686   0.405 -1.0232 -1.4387 -1.1114
 3141SOL    HW2 9559   4.944   4.827   0.377  2.4388  0.2784  0.9703
 3142SOL     OW 9560   1.088   4.002   2.093 -0.1745 -0.9334  0.4008
 3142SOL    HW1 9561   1.089   4.074   2.156  1.0264  0.6863 -1.3491
 3142SOL    HW2 9562   1.064   3.925   2.145  1.9892  0.0464  3.0817
 3143SOL     OW 9563   4.865   3.530   3.380 -0.3383  0.0674  0.5821
 3143SOL    HW1 9564   4.867   3.587   3.303 -2.6428  0.1297  0.4869
 3143SOL    HW2 9565   4.773   3.503   3.386  0.4685 -2.7981  1.2479
 3144SOL     OW 9566   3.786   0.440   1.295  0.1233 -0.1705 -0.2244
 3144SOL    HW1 9567   3.789   0.345   1.297 -0.5776 -0.2194 -0.9377
 3144SOL    HW2 9568   3.694   0.461   1.277 -0.0992  0.6870  1.6405
 3145SOL     OW 9569   2.787   3.854   2.040 -0.9279 -0.7062  0.3294
 3145SOL    HW1 9570   2.861   3.838   1.981 -0.1183  2.6493  0.2021
 3145SOL    HW2 9571   2.710   3.855   1.982 -0.6338 -0.9946 -0.0684
 3146SOL     OW 9572   1.116   2.042   0.391 -0.6638  0.2318  0.3748
 3146SOL    HW1 9573   1.145   2.073   0.477 -0.8296  0.7444  0.2488
 3146SOL    HW2 9574   1.131   2.116   0.332  1.1871 -0.7189 -0.4349
 3147SOL     OW 9575   0.704   4.601   2.791 -0.0415  0.0831  0.0718
 3147SOL    HW1 9576   0.745   4.515   2.802 -0.2543 -0.2971 -1.6962
 3147SOL    HW2 9577   0.663   4.596   2.704  0.0926  2.0333 -0.1424
 3148SOL     OW 9578   4.862   2.639   2.914 -0.5117  0.1690 -0.7146
 3148SOL    HW1 9579   4.925   2.693   2.866  0.5149  0.4727  0.9063
 3148SOL    HW2 9580   4.915   2.569   2.953 -1.2282  0.1814  0.3274
 3149SOL     OW 9581   4.502   4.571   2.309  0.6174  0.4551  0.1656
 3149SOL    HW1 9582   4.417   4.613   2.319  0.4861  0.5512 -1.1339
 3149SOL    HW2 9583   4.493   4.516   2.231  1.7988  0.6120 -0.1095
 3150SOL     OW 9584   2.504   1.827   0.670 -0.2308 -0.8812  0.0691
 3150SOL    HW1 9585   2.476   1.791   0.586  0.3180 -0.2067 -0.4107
 3150SOL    HW2 9586   2.462   1.912   0.676  1.3829  0.0112 -0.5179
 3151SOL     OW 9587   2.716   2.139   0.768  0.5926  0.6465  0.0374
 3151SOL    HW1 9588   2.718   2.057   0.818  2.6675  0.3523 -0.4222
 3151SOL    HW2 9589   2.743   2.113   0.680  1.8166  1.8873  0.0254
 3152SOL     OW 9590   2.873   2.459   1.310  0.4332 -0.2348 -0.5167
 3152SOL    HW1 9591   2.863   2.452   1.215  0.8770  1.0598 -0.6790
 3152SOL    HW2 9592   2.849   2.373   1.343 -2.3769  0.0127 -1.5974
 3153SOL     OW 9593   0.052   2.099   2.602  0.2873 -1.0283 -0.3000
 3153SOL    HW1 9594   0.123   2.069   2.545 -0.5481 -1.5439 -1.0936
 3153SOL    HW2 9595  -0.026   2.094   2.548 -0.4548 -1.0434  0.7438
 3154SOL     OW 9596   3.882   0.104   0.948 -0.3616 -0.2636 -0.4971
 3154SOL    HW1 9597   3.928   0.102   1.032  0.7405  0.6322 -1.0406
 3154SOL    HW2 9598   3.948   0.075   0.884 -1.0875 -0.6281 -1.0901
 3155SOL     OW 9599   4.940   3.800   3.008  0.1374 -0.5221 -0.3546
 3155SOL    HW1 9600   5.006   3.864   2.983 -0.5407  0.2687 -0.1755
 3155SOL    HW2 9601   4.901   3.836   3.088 -0.1021 -1.2708 -0.1276
 3156SOL     OW 9602   0.204   2.287   1.558  0.1040 -0.1764  0.1076
 3156SOL    HW1 9603   0.226   2.320   1.645 -1.8114  0.6733  0.3228
 3156SOL    HW2 9604   0.230   2.357   1.498  0.8148 -0.4871  0.0415
 3157SOL     OW 9605   3.721   3.619   1.273  0.6087 -0.0343  0.1050
 3157SOL    HW1 9606   3.626   3.627   1.285  0.5024 -0.1634 -0.6014
 3157SOL    HW2 9607   3.752   3.708   1.260  0.1994 -0.1813 -2.2896
 3158SOL     OW 9608   1.815   2.465   0.715 -0.1280  0.2973 -0.4463
 3158SOL    HW1 9609   1.808   2.433   0.625 -1.3338  0.3759 -0.3972
 3158SOL    HW2 9610   1.903   2.439   0.743 -0.9274 -2.8091 -0.4509
 3159SOL     OW 9611   4.237   2.354   4.820  0.1270  0.3328 -0.1402
 3159SOL    HW1 9612   4.330   2.342   4.804 -0.1396  1.0730 -2.6951
 3159SOL    HW2 9613   4.199   2.266   4.808  0.1507  0.5788 -2.3485
 3160SOL     OW 9614   1.289   1.418   3.667 -0.3642 -0.1069  0.1289
 3160SOL    HW1 9615   1.364   1.451   3.716 -0.1530 -2.1226  1.2648
 3160SOL    HW2 9616   1.272   1.486   3.602  2.0643  0.6822  0.2018
 3161SOL     OW 9617   4.555   0.116   3.985 -0.1698 -0.2709  0.1715
 3161SOL    HW1 9618   4.540   0.155   3.899 -0.7725 -0.3896  0.2211
 3161SOL    HW2 9619   4.650   0.121   3.997 -0.0532 -0.4700 -0.6058
 3162SOL     OW 9620   0.097   0.011   4.424  0.1633  0.0602 -0.0795
 3162SOL    HW1 9621   0.137  -0.026   4.345  1.5244 -0.2328  0.7236
 3162SOL    HW2 9622   0.170   0.024   4.484 -0.6774  1.4810  0.6797
 3163SOL     OW 9623   1.868   2.941   2.655  0.2133 -0.2215  0.1366
 3163SOL    HW1 9624   1.950   2.933   2.703  0.2101 -0.3875  0.1182
 3163SOL    HW2 9625   1.848   3.034   2.655  0.7088 -0.1070 -0.3631
 3164SOL     OW 9626   3.721   3.003   1.400  0.0239  0.0017  0.2949
 3164SOL    HW1 9627   3.681   2.944   1.335 -0.0904  0.8943 -0.4697
 3164SOL    HW2 9628   3.814   3.002   1.378 -0.0190  0.3283  0.1038
 3165SOL     OW 9629   1.902   0.317   4.330  0.5241 -0.4905  0.6819
 3165SOL    HW1 9630   1.829   0.362   4.372  1.2292 -0.1047  1.5070
 3165SOL    HW2 9631   1.863   0.236   4.296 -0.1806 -0.5289  1.5576
 3166SOL     OW 9632   0.393   3.528   4.696  0.6757 -0.0488 -0.2985
 3166SOL    HW1 9633   0.364   3.505   4.607 -0.9251  0.4508  0.0637
 3166SOL    HW2 9634   0.417   3.620   4.690  0.0272  0.1391 -0.1032
 3167SOL     OW 9635   3.554   4.094   2.742  0.0957 -0.7651  0.0290
 3167SOL    HW1 9636   3.617   4.165   2.757 -1.0337 -0.0297  1.7477
 3167SOL    HW2 9637   3.471   4.129   2.777 -1.9180 -0.7687 -4.1129
 3168SOL     OW 9638   3.487   4.777   3.941 -0.3498  0.2307  0.1331
 3168SOL    HW1 9639   3.546   4.835   3.989 -1.6568  0.5684  1.4029
 3168SOL    HW2 9640   3.492   4.693   3.986  0.0109 -0.0882 -0.4744
 3169SOL     OW 9641   2.705   1.746   2.468 -0.4062 -0.3696  0.5101
 3169SOL    HW1 9642   2.633   1.722   2.526  0.2443 -0.2381  1.3991
 3169SOL    HW2 9643   2.752   1.663   2.453 -0.5702 -0.4022  0.1788
 3170SOL     OW 9644   1.526   3.010   4.944 -0.4002  0.4118 -0.0129
 3170SOL    HW1 9645   1.616   2.994   4.916 -0.0799  1.9217  0.0938
 3170SOL    HW2 9646   1.487   2.923   4.948  0.5468 -0.1453 -1.7443
 3171SOL     OW 9647   1.793   3.775   1.836 -0.7935  0.0886  0.0988
 3171SOL    HW1 9648   1.854   3.789   1.763 -0.1474 -1.6774  0.2591
 3171SOL    HW2 9649   1.840   3.809   1.913 -1.0366  0.9591 -0.1222
 3172SOL     OW 9650   4.092   3.999   3.942 -0.1414  0.6164 -0.6590
 3172SOL    HW1 9651   4.048   3.916   3.958  1.0751  0.1990  0.7514
 3172SOL    HW2 9652   4.036   4.064   3.983 -0.4068  0.3299 -0.5574
 3173SOL     OW 9653   1.049   3.684   2.849 -0.3816 -0.0470  0.0472
 3173SOL    HW1 9654   1.100   3.717   2.775  0.3112  2.0784  1.3839
 3173SOL    HW2 9655   1.088   3.726   2.926 -1.1778 -2.0421  1.6351
 3174SOL     OW 9656   0.358   0.073   3.169  0.2549  0.2295 -0.5568
 3174SOL    HW1 9657   0.398   0.067   3.256 -1.2474 -0.3514  0.1326
 3174SOL    HW2 9658   0.390   0.155   3.133  2.9546 -0.7339 -0.5426
 3175SOL     OW 9659   1.005   0.400   1.939  0.0268  0.1207 -0.2769
 3175SOL    HW1 9660   1.031   0.443   1.857 -0.7483  0.7568 -0.2065
 3175SOL    HW2 9661   0.925   0.352   1.916 -0.9025  1.3010  0.3708
 3176SOL     OW 9662   2.159   4.830   2.353  0.0852  0.7529 -0.2460
 3176SOL    HW1 9663   2.202   4.754   2.392  1.6517  1.6263 -0.2279
 3176SOL    HW2 9664   2.201   4.841   2.268 -0.8963  0.9533 -0.7182
 3177SOL     OW 9665   2.690   0.609   3.692  0.0416 -0.4643  0.2249
 3177SOL    HW1 9666   2.622   0.661   3.651  0.1841  0.2790  0.9058
 3177SOL    HW2 9667   2.736   0.567   3.619  0.7007  1.3233 -0.4396
 3178SOL     OW 9668   3.398   3.901   2.976  0.5121 -0.4884 -0.2795
 3178SOL    HW1 9669   3.357   3.821   3.009 -0.0313 -0.0521  0.1167
 3178SOL    HW2 9670   3.458   3.928   3.045  0.9730 -0.7546 -0.5723
 3179SOL     OW 9671   3.489   4.440   4.857  0.2369 -0.9101  0.3801
 3179SOL    HW1 9672   3.545   4.390   4.798  1.3800 -0.1380  0.7969
 3179SOL    HW2 9673   3.547   4.503   4.899 -0.3659 -1.9649  2.9675
 3180SOL     OW 9674   2.634   2.133   0.489 -0.1376 -0.1679 -0.0655
 3180SOL    HW1 9675   2.563   2.101   0.546  0.6580  0.1171  1.1185
 3180SOL    HW2 9676   2.609   2.223   0.469 -1.1712 -0.7167 -1.4379
 3181SOL     OW 9677   4.610   4.751   4.101 -0.0002  0.7035  0.2042
 3181SOL    HW1 9678   4.702   4.726   4.089 -0.0922  0.8709 -0.9776
 3181SOL    HW2 9679   4.614   4.834   4.148  0.4181  0.2653  0.9541
 3182SOL     OW 9680   4.323   0.194   2.115  0.0041  0.1963  0.1162
 3182SOL    HW1 9681   4.410   0.155   2.126 -1.1888 -2.1206  2.3882
 3182SOL    HW2 9682   4.279   0.135   2.053 -1.2436 -1.2176  2.2313
 3183SOL     OW 9683   2.965   1.277   3.479  0.1825  0.2417  0.0314
 3183SOL    HW1 9684   2.984   1.366   3.448 -0.8208 -0.3459 -2.4787
 3183SOL    HW2 9685   2.889   1.249   3.427  0.7090 -2.2337  0.4730
 3184SOL     OW 9686   4.264   1.086   1.589  0.0972 -0.1700 -0.0208
 3184SOL    HW1 9687   4.312   1.074   1.507 -0.8344  2.1724 -0.9948
 3184SOL    HW2 9688   4.330   1.073   1.658  1.0803 -1.3784 -1.1450
 3185SOL     OW 9689   1.290   4.254   0.347  0.4968 -0.0389 -0.5445
 3185SOL    HW1 9690   1.356   4.271   0.280  1.7755 -1.3289  0.3130
 3185SOL    HW2 9691   1.341   4.246   0.428 -0.8613  0.2053  0.3530
 3186SOL     OW 9692   2.882   2.968   0.740 -0.3902 -0.7528  0.7714
 3186SOL    HW1 9693   2.960   2.962   0.684 -0.0856  0.2956  1.0549
 3186SOL    HW2 9694   2.869   2.879   0.772 -0.3500 -1.3030 -0.6576
 3187SOL     OW 9695   2.920   0.125   3.845  0.2333  0.7540  0.7474
 3187SOL    HW1 9696   2.825   0.117   3.850  0.3753 -0.4812  2.2023
 3187SOL    HW2 9697   2.952   0.034   3.845  1.4638  1.1520  2.1673
 3188SOL     OW 9698   3.830   3.837   2.524 -0.0949 -0.3853 -0.1256
 3188SOL    HW1 9699   3.822   3.789   2.441 -1.8137 -0.6489  0.1650
 3188SOL    HW2 9700   3.864   3.923   2.498 -2.7712  0.3592 -1.4563
 3189SOL     OW 9701   3.955   2.908   1.070  0.0112 -0.5208 -0.5525
 3189SOL    HW1 9702   4.031   2.964   1.056 -0.1079 -0.5487 -1.3794
 3189SOL    HW2 9703   3.947   2.902   1.165  1.0601 -0.5575 -0.4554
 3190SOL     OW 9704   3.171   2.203   2.753  0.0270  0.3430 -0.5314
 3190SOL    HW1 9705   3.256   2.169   2.728 -0.7373 -1.4229 -0.8692
 3190SOL    HW2 9706   3.128   2.224   2.670 -0.7371 -1.0615 -0.5285
 3191SOL     OW 9707   1.275   2.098   2.189 -0.0240  0.2706  0.2911
 3191SOL    HW1 9708   1.264   2.013   2.147 -1.9418  1.0421 -0.9408
 3191SOL    HW2 9709   1.186   2.125   2.211  0.6656  1.3934  1.8569
 3192SOL     OW 9710   4.841   3.337   0.655 -0.0515 -0.7239 -0.6541
 3192SOL    HW1 9711   4.920   3.375   0.694  0.0414 -0.0710 -1.4505
 3192SOL    HW2 9712   4.873   3.260   0.608  0.0041 -0.8564 -0.4023
 3193SOL     OW 9713   1.996   0.266   0.089 -0.1058  0.3790 -0.3083
 3193SOL    HW1 9714   2.043   0.323   0.150  0.0941  0.3297 -0.4143
 3193SOL    HW2 9715   1.904   0.287   0.102 -0.2192 -0.8401  1.2671
 3194SOL     OW 9716   1.956   3.428   4.145 -1.0459  0.0342 -0.0443
 3194SOL    HW1 9717   2.008   3.458   4.069 -1.9562 -0.2259 -0.7853
 3194SOL    HW2 9718   1.866   3.426   4.113 -1.7325  1.7648  1.6012
 3195SOL     OW 9719   0.721   1.560   1.339  0.3490  0.2517 -0.3466
 3195SOL    HW1 9720   0.808   1.535   1.369  0.1825 -2.1471 -1.6382
 3195SOL    HW2 9721   0.674   1.477   1.328 -2.1948  1.4645  0.4812
 3196SOL     OW 9722   4.361   3.240   1.157 -0.4973 -0.4407  0.0683
 3196SOL    HW1 9723   4.363   3.333   1.134 -0.6674 -0.8691 -1.8370
 3196SOL    HW2 9724   4.287   3.232   1.218  0.2287  0.8276  1.1745
 3197SOL     OW 9725   1.238   1.352   1.210 -0.1145  0.9487  0.0027
 3197SOL    HW1 9726   1.193   1.422   1.257 -1.3124 -0.7432  1.4836
 3197SOL    HW2 9727   1.260   1.391   1.125  0.2035  3.4211  1.1259
 3198SOL     OW 9728   1.948   4.705   3.475 -0.4296 -0.0712 -0.2845
 3198SOL    HW1 9729   1.901   4.692   3.393  0.3502  1.1631 -0.9403
 3198SOL    HW2 9730   2.036   4.732   3.450  0.9036 -2.8435  0.9116
 3199SOL     OW 9731   1.465   2.514   2.074 -0.0977 -0.4586 -0.2151
 3199SOL    HW1 9732   1.394   2.519   2.010  0.0718  0.8516 -0.3437
 3199SOL    HW2 9733   1.434   2.564   2.149 -0.0768 -1.5301  0.5312
 3200SOL     OW 9734   0.926   2.033   4.598 -0.1705 -0.2336  0.3757
 3200SOL    HW1 9735   0.875   1.957   4.571  0.2557 -0.1250 -0.8077
 3200SOL    HW2 9736   1.012   1.997   4.621 -0.3499 -0.2554  1.0038
 3201SOL     OW 9737   1.606   1.647   0.586  0.2240  0.1985 -0.1989
 3201SOL    HW1 9738   1.559   1.729   0.605  2.0789  0.8347  2.2417
 3201SOL    HW2 9739   1.634   1.656   0.495 -0.8053  1.6493 -0.4109
 3202SOL     OW 9740   3.662   2.303   0.882 -0.1723  0.1495 -0.0121
 3202SOL    HW1 9741   3.682   2.381   0.935 -0.8449 -0.8977  1.8650
 3202SOL    HW2 9742   3.748   2.269   0.857  0.3131 -0.7639  2.6393
 3203SOL     OW 9743   2.618   0.427   4.168 -0.6588 -0.3249 -0.0318
 3203SOL    HW1 9744   2.557   0.456   4.101 -0.2473  1.4238  0.3004
 3203SOL    HW2 9745   2.704   0.430   4.126 -0.4346  0.4742  0.4538
 3204SOL     OW 9746   0.971   1.434   1.004  0.5456 -0.3068 -0.4337
 3204SOL    HW1 9747   1.056   1.466   0.972 -1.8854  1.9562 -5.8086
 3204SOL    HW2 9748   0.940   1.504   1.062  1.5627 -0.3401  0.1883
 3205SOL     OW 9749   1.832   1.803   3.786  0.6933 -0.0483  0.2239
 3205SOL    HW1 9750   1.767   1.873   3.778  0.1499 -0.6271 -0.6623
 3205SOL    HW2 9751   1.909   1.836   3.740  0.2195 -0.2799 -0.7484
 3206SOL     OW 9752   0.774   0.901   0.899  0.2562 -0.1273  0.3052
 3206SOL    HW1 9753   0.836   0.845   0.947  1.6440  0.2936 -0.9294
 3206SOL    HW2 9754   0.813   0.988   0.902 -0.4729  0.2246 -0.1989
 3207SOL     OW 9755   4.847   3.817   4.961  0.0558 -0.1522  0.1953
 3207SOL    HW1 9756   4.860   3.729   4.997  1.6170 -0.5943 -1.3331
 3207SOL    HW2 9757   4.850   3.805   4.866  0.4993  1.5713 -0.0422
 3208SOL     OW 9758   3.974   0.602   3.350  0.0096  0.1376 -0.2559
 3208SOL    HW1 9759   3.933   0.534   3.403 -1.2336  0.2102 -1.0880
 3208SOL    HW2 9760   4.051   0.560   3.311  0.3293 -0.2176  0.7152
 3209SOL     OW 9761   4.032   3.425   2.816  0.2089 -0.4609 -0.2884
 3209SOL    HW1 9762   4.039   3.463   2.728  0.0245  2.4104  0.8062
 3209SOL    HW2 9763   3.938   3.422   2.833  0.2797  0.5323  0.3672
 3210SOL     OW 9764   3.272   2.032   3.271 -0.1283 -0.2316  0.4873
 3210SOL    HW1 9765   3.356   2.044   3.226 -0.5824  1.1808 -0.0234
 3210SOL    HW2 9766   3.233   2.119   3.273 -2.3325 -1.1012 -0.7862
 3211SOL     OW 9767   4.882   1.299   2.594 -0.4180  0.4494 -0.8237
 3211SOL    HW1 9768   4.836   1.293   2.510 -1.1087  0.1824 -0.4370
 3211SOL    HW2 9769   4.844   1.375   2.637 -0.1888  0.4820 -0.6782
 3212SOL     OW 9770   1.869   0.298   1.562 -0.6312  0.6133  0.4020
 3212SOL    HW1 9771   1.832   0.328   1.479 -0.9816  1.4599  0.8504
 3212SOL    HW2 9772   1.919   0.219   1.539 -1.7728  0.0962 -0.3972
 3213SOL     OW 9773   3.867   0.876   1.126 -0.1676  0.6663  0.1193
 3213SOL    HW1 9774   3.906   0.873   1.038  1.2650 -0.6242  0.7456
 3213SOL    HW2 9775   3.915   0.946   1.171  0.2144  0.2695  0.3406
 3214SOL     OW 9776   0.689   1.048   0.203 -0.0384  0.2292  0.2711
 3214SOL    HW1 9777   0.669   0.955   0.212  0.8589 -0.0606 -0.5099
 3214SOL    HW2 9778   0.714   1.075   0.291  0.9148 -0.5910  0.2787
 3215SOL     OW 9779   1.091   1.334   2.328  0.0299  0.4765 -0.1469
 3215SOL    HW1 9780   1.062   1.244   2.339 -0.2242  0.4737 -0.8363
 3215SOL    HW2 9781   1.185   1.327   2.311  0.0771  0.3679  0.1470
 3216SOL     OW 9782   4.673   1.459   1.033  0.0615 -0.0301  0.2781
 3216SOL    HW1 9783   4.713   1.488   1.114  0.2829 -1.1872  0.6036
 3216SOL    HW2 9784   4.622   1.382   1.057 -0.2232 -0.1328 -0.5993
 3217SOL     OW 9785   0.957   1.240   3.396  0.6875 -0.4704 -0.3121
 3217SOL    HW1 9786   1.002   1.320   3.423  0.9977 -0.3237 -1.2391
 3217SOL    HW2 9787   1.009   1.170   3.435  2.2836 -0.3501 -2.0444
 3218SOL     OW 9788   2.615   0.353   3.782  0.1336 -0.2590  0.5125
 3218SOL    HW1 9789   2.533   0.336   3.828 -0.1068 -0.0865  0.1483
 3218SOL    HW2 9790   2.619   0.448   3.773  0.8176 -0.2014  1.3365
 3219SOL     OW 9791   1.427   1.189   2.966 -0.3003  0.1323 -0.5950
 3219SOL    HW1 9792   1.445   1.109   3.017  2.2009  1.5855  1.0554
 3219SOL    HW2 9793   1.332   1.190   2.955 -0.8693 -1.0025  2.9564
 3220SOL     OW 9794   2.059   1.271   3.704 -0.0658  0.1914  0.1282
 3220SOL    HW1 9795   2.136   1.323   3.681 -0.0720 -0.0684 -0.4764
 3220SOL    HW2 9796   2.013   1.258   3.621  0.9133 -2.3851 -0.0855
 3221SOL     OW 9797   3.305   1.317   2.433 -0.2729 -0.2828  0.5299
 3221SOL    HW1 9798   3.256   1.276   2.504 -0.4560 -2.1991 -0.6445
 3221SOL    HW2 9799   3.373   1.254   2.412 -0.5122  0.0352 -1.3176
 3222SOL     OW 9800   3.125   3.405   4.439 -0.1935  0.4466  0.2318
 3222SOL    HW1 9801   3.056   3.395   4.504 -2.0105  0.7745 -1.5279
 3222SOL    HW2 9802   3.080   3.440   4.362  2.6209  4.9202  0.2665
 3223SOL     OW 9803   1.618   4.017   1.579  0.2420 -0.0357 -0.1006
 3223SOL    HW1 9804   1.590   4.002   1.670 -1.7132 -0.1883 -0.6840
 3223SOL    HW2 9805   1.625   4.112   1.572 -0.5540  0.0263 -0.0559
 3224SOL     OW 9806   1.104   2.436   4.824 -0.3675 -0.8047  0.1683
 3224SOL    HW1 9807   1.108   2.514   4.769  0.3423 -0.8755  0.1166
 3224SOL    HW2 9808   1.058   2.371   4.771  0.9530 -1.1079 -0.6314
 3225SOL     OW 9809   3.922   0.083   3.568 -0.3274 -0.0413 -0.0962
 3225SOL    HW1 9810   3.826   0.089   3.570 -0.3836 -0.9716  0.6414
 3225SOL    HW2 9811   3.943   0.017   3.634  0.9262  1.2172  0.8107
 3226SOL     OW 9812   3.952   1.490   2.601 -0.7542 -0.2203 -0.1499
 3226SOL    HW1 9813   3.931   1.396   2.607  0.3965 -0.5671 -1.1659
 3226SOL    HW2 9814   3.950   1.520   2.692 -2.0942 -0.9952  0.1120
 3227SOL     OW 9815   2.741   3.656   1.487 -0.2060  0.6610  0.5490
 3227SOL    HW1 9816   2.763   3.742   1.450 -0.0402  0.4592  0.1621
 3227SOL    HW2 9817   2.658   3.670   1.533  0.3862  1.2825  1.4582
 3228SOL     OW 9818   4.862   0.077   3.680  0.0665  0.3741  0.5547
 3228SOL    HW1 9819   4.929   0.062   3.747  1.2163  2.3039 -0.0807
 3228SOL    HW2 9820   4.779   0.059   3.725  0.9694 -2.3401  1.2723
 3229SOL     OW 9821   4.085   3.254   4.212  0.4490  0.3676  0.4091
 3229SOL    HW1 9822   4.054   3.272   4.123  0.3359 -0.3047  0.3074
 3229SOL    HW2 9823   4.103   3.341   4.249  2.4074  0.5949 -0.9547
 3230SOL     OW 9824   3.629   1.663   0.170 -0.7889  0.1839  0.1442
 3230SOL    HW1 9825   3.595   1.741   0.125 -0.4396  0.3442  0.1564
 3230SOL    HW2 9826   3.710   1.642   0.124 -1.4020 -0.7881 -0.5198
 3231SOL     OW 9827   4.652   0.002   1.064 -0.5608 -0.1853 -0.4016
 3231SOL    HW1 9828   4.655   0.009   1.159 -0.5514  1.4251 -0.4964
 3231SOL    HW2 9829   4.743  -0.010   1.037  0.3502  4.8993 -0.4916
 3232SOL     OW 9830   3.423   1.597   2.281 -0.3438 -0.6355  0.2733
 3232SOL    HW1 9831   3.429   1.506   2.310  0.0618 -0.3017  1.2826
 3232SOL    HW2 9832   3.458   1.648   2.354 -0.4348  0.3263 -0.3329
 3233SOL     OW 9833   0.986   3.295   2.904  0.5170  0.6139 -0.4634
 3233SOL    HW1 9834   1.000   3.229   2.972 -0.7844 -0.4865 -1.2258
 3233SOL    HW2 9835   1.068   3.344   2.901  2.3229 -2.2569 -1.2930
 3234SOL     OW 9836   4.748   3.407   1.062 -0.1196  0.6062  0.5401
 3234SOL    HW1 9837   4.811   3.429   0.994 -1.2087  2.4747  0.0711
 3234SOL    HW2 9838   4.701   3.489   1.079 -1.4042 -0.3645  1.9327
 3235SOL     OW 9839   3.427   1.545   2.554  0.6753 -0.0616 -0.2593
 3235SOL    HW1 9840   3.510   1.547   2.602  0.3899 -0.2436  0.2451
 3235SOL    HW2 9841   3.409   1.452   2.541 -0.8961 -0.1668  2.1846
 3236SOL     OW 9842   4.288   0.888   2.138  0.1153 -0.3138  0.6029
 3236SOL    HW1 9843   4.348   0.876   2.065 -1.6402 -2.3880 -0.6440
 3236SOL    HW2 9844   4.329   0.842   2.211  0.0885 -1.7442 -0.2417
 3237SOL     OW 9845   2.728   2.303   1.553 -0.3083 -0.3367  0.4192
 3237SOL    HW1 9846   2.803   2.244   1.552  0.2267  0.3340 -0.8793
 3237SOL    HW2 9847   2.688   2.293   1.467 -1.2673 -0.1033  0.8156
 3238SOL     OW 9848   0.627   1.272   4.570  0.3038  0.3584  0.3903
 3238SOL    HW1 9849   0.695   1.271   4.637  0.7737  0.9967 -0.0634
 3238SOL    HW2 9850   0.666   1.227   4.496 -0.8326 -1.9192  1.0915
 3239SOL     OW 9851   1.919   4.820   2.533 -0.0799  0.5104 -0.7310
 3239SOL    HW1 9852   1.939   4.849   2.622  0.1716  0.3702 -0.7378
 3239SOL    HW2 9853   1.977   4.872   2.478 -0.5587  0.9216 -0.8541
 3240SOL     OW 9854   2.768   0.524   0.604  0.0308  0.3378 -0.1905
 3240SOL    HW1 9855   2.756   0.459   0.534 -1.3607 -0.8304  1.0588
 3240SOL    HW2 9856   2.749   0.608   0.563 -1.9278 -0.4377 -0.9868
 3241SOL     OW 9857   1.912   0.579   0.243  0.1387 -0.1948  0.1701
 3241SOL    HW1 9858   1.916   0.542   0.331 -0.5845  0.5527  0.5333
 3241SOL    HW2 9859   1.951   0.666   0.252  1.1040 -0.5480 -0.5023
 3242SOL     OW 9860   1.919   3.641   3.449 -0.4817 -0.4269  0.4038
 3242SOL    HW1 9861   1.841   3.616   3.400  0.3648 -4.0785  0.5864
 3242SOL    HW2 9862   1.901   3.611   3.539  0.5118  0.1328  0.8018
 3243SOL     OW 9863   1.816   0.831   2.446 -0.0839 -0.3770 -0.2213
 3243SOL    HW1 9864   1.903   0.817   2.484 -0.6714 -0.2419  1.2395
 3243SOL    HW2 9865   1.757   0.782   2.504 -1.0404 -0.0087 -0.8645
 3244SOL     OW 9866   2.419   4.004   0.192 -0.7310  0.4775  0.3953
 3244SOL    HW1 9867   2.481   3.981   0.123 -2.4137  2.9775 -2.1885
 3244SOL    HW2 9868   2.401   3.921   0.237 -0.3549 -1.5508 -2.8935
 3245SOL     OW 9869   3.264   4.916   2.544  0.0641  0.2126 -1.0346
 3245SOL    HW1 9870   3.237   4.946   2.457 -3.0154 -0.7449 -0.5413
 3245SOL    HW2 9871   3.246   4.822   2.543 -0.4189  0.2498  0.7301
 3246SOL     OW 9872   1.755   4.364   0.768 -0.0192  0.3160 -0.0160
 3246SOL    HW1 9873   1.840   4.338   0.803 -1.2492 -0.6531  2.5256
 3246SOL    HW2 9874   1.773   4.391   0.678  3.2514  1.9525  0.9880
 3247SOL     OW 9875   0.419   3.337   3.234  0.0350 -0.1589 -0.0536
 3247SOL    HW1 9876   0.427   3.262   3.294 -0.1871  0.8420  1.2773
 3247SOL    HW2 9877   0.500   3.336   3.183  1.0946  0.0077  1.5471
 3248SOL     OW 9878   4.041   4.774   0.535  0.0739 -0.2455  0.0057
 3248SOL    HW1 9879   3.952   4.797   0.508  0.4134  0.8348 -0.2473
 3248SOL    HW2 9880   4.034   4.755   0.629 -0.0929  2.0010  0.5201
 3249SOL     OW 9881   4.379   4.022   0.636 -0.5657 -0.3333 -0.2267
 3249SOL    HW1 9882   4.316   4.042   0.705 -2.2395  0.1162 -1.8032
 3249SOL    HW2 9883   4.439   4.097   0.635 -3.0963  1.8330 -2.0006
 3250SOL     OW 9884   3.699   4.877   3.007 -0.1606  0.3346 -0.3403
 3250SOL    HW1 9885   3.642   4.883   2.930 -0.3027  1.1868 -0.1750
 3250SOL    HW2 9886   3.770   4.819   2.979 -0.0965  0.8027 -1.1955
 3251SOL     OW 9887   2.057   2.829   4.569  0.2941  0.3213  0.7685
 3251SOL    HW1 9888   2.095   2.865   4.489 -1.5237  0.8492  0.0926
 3251SOL    HW2 9889   2.132   2.812   4.626  1.7613 -1.1859 -1.4497
 3252SOL     OW 9890   2.919   0.016   1.437  0.4134  0.2490  0.2374
 3252SOL    HW1 9891   2.982  -0.009   1.504  1.8400  0.6020 -0.9192
 3252SOL    HW2 9892   2.962   0.087   1.389 -1.1933  1.0324 -0.1152
 3253SOL     OW 9893   0.299   2.890   2.458 -0.4555  0.3814 -0.3763
 3253SOL    HW1 9894   0.234   2.821   2.474 -0.3579  0.3992  0.1361
 3253SOL    HW2 9895   0.369   2.847   2.409 -0.2706  0.0443  0.1725
 3254SOL     OW 9896   2.378   1.214   0.997 -0.1883 -0.0029 -0.1600
 3254SOL    HW1 9897   2.350   1.138   1.048  0.4667  0.2328  0.5740
 3254SOL    HW2 9898   2.471   1.223   1.018  0.0755  0.1459 -1.3553
 3255SOL     OW 9899   3.730   4.192   3.117 -0.0999  0.3770  0.4383
 3255SOL    HW1 9900   3.797   4.204   3.183 -1.8373  1.1804  2.1478
 3255SOL    HW2 9901   3.742   4.102   3.086  4.3889  1.6325 -2.4952
 3256SOL     OW 9902   2.311   2.267   3.381 -0.5670 -0.3158  0.1520
 3256SOL    HW1 9903   2.394   2.225   3.361 -0.5725  0.0999 -0.8105
 3256SOL    HW2 9904   2.322   2.357   3.351 -1.6609 -0.4856 -0.8094
 3257SOL     OW 9905   3.157   4.956   3.155 -0.5963 -0.1530 -0.1053
 3257SOL    HW1 9906   3.116   4.903   3.223 -0.7123  0.2769  0.1676
 3257SOL    HW2 9907   3.178   5.039   3.200 -0.4592  0.0428 -0.5320
 3258SOL     OW 9908   2.622   0.146   0.118  0.5898  0.1725 -0.0333
 3258SOL    HW1 9909   2.583   0.086   0.054  0.8150  0.3831 -0.3768
 3258SOL    HW2 9910   2.577   0.128   0.200  2.3136 -2.2127  0.5103
 3259SOL     OW 9911   0.853   0.452   0.402 -0.2111 -0.6668  0.3973
 3259SOL    HW1 9912   0.776   0.415   0.445 -0.9716  0.2033 -0.1531
 3259SOL    HW2 9913   0.838   0.547   0.404  0.3511 -0.5367 -0.6116
 3260SOL     OW 9914   2.816   1.824   4.586 -0.5568  0.1494 -0.3353
 3260SOL    HW1 9915   2.839   1.917   4.588  0.9576 -0.1674 -1.4586
 3260SOL    HW2 9916   2.897   1.779   4.561 -1.7607 -1.2792 -1.9321
 3261SOL     OW 9917   4.824   4.860   3.199  0.1634  0.3371  0.2687
 3261SOL    HW1 9918   4.733   4.851   3.172  0.3475  0.9964 -0.6060
 3261SOL    HW2 9919   4.872   4.795   3.148  0.2902  0.4970  0.1838
 3262SOL     OW 9920   3.970   4.379   4.874 -0.4346 -0.2661 -0.3679
 3262SOL    HW1 9921   3.995   4.469   4.897 -0.4113 -0.5400  0.7208
 3262SOL    HW2 9922   3.921   4.348   4.950  1.0369 -1.7748  0.0262
 3263SOL     OW 9923   1.437   2.576   0.383  0.0909  0.2519  0.2946
 3263SOL    HW1 9924   1.414   2.534   0.466 -0.3420  0.1811  0.1419
 3263SOL    HW2 9925   1.488   2.510   0.336  1.7360  0.8586  1.1580
 3264SOL     OW 9926   1.918   0.564   3.956  0.2440  0.0476 -0.7594
 3264SOL    HW1 9927   1.908   0.593   4.046  1.8482 -1.0885 -0.1624
 3264SOL    HW2 9928   1.832   0.577   3.916 -0.4099  0.8345  0.8396
 3265SOL     OW 9929   0.667   3.499   3.584 -0.1272 -0.0588 -0.4958
 3265SOL    HW1 9930   0.736   3.467   3.642 -0.6943 -1.0489 -0.3369
 3265SOL    HW2 9931   0.706   3.573   3.538  0.6080  0.2184  0.5375
 3266SOL     OW 9932   1.093   0.828   1.534  0.0309 -0.5593  0.1577
 3266SOL    HW1 9933   1.030   0.884   1.489  0.7387  1.4087  1.4872
 3266SOL    HW2 9934   1.107   0.870   1.618  0.8748 -2.5891  1.1095
 3267SOL     OW 9935   1.910   1.955   1.970 -0.3864 -0.2248  0.5302
 3267SOL    HW1 9936   1.886   1.870   1.932  0.1087 -0.4641  0.7445
 3267SOL    HW2 9937   1.843   2.015   1.937  0.8268 -0.1044 -1.9521
 3268SOL     OW 9938   3.526   4.138   4.049 -0.2980  0.0693 -0.5108
 3268SOL    HW1 9939   3.471   4.072   4.091 -1.0221  0.0230 -1.4855
 3268SOL    HW2 9940   3.563   4.189   4.121 -0.8309 -0.5329  0.1977
 3269SOL     OW 9941   0.573   1.240   1.802  0.6017 -0.0266  0.3022
 3269SOL    HW1 9942   0.545   1.153   1.831  1.1358 -0.4424 -0.4047
 3269SOL    HW2 9943   0.659   1.226   1.763  0.9056  0.9037  0.6021
 3270SOL     OW 9944   0.891   4.360   4.682  0.8640 -0.3772 -0.1521
 3270SOL    HW1 9945   0.911   4.447   4.717 -0.1091 -0.1206 -0.2075
 3270SOL    HW2 9946   0.866   4.309   4.759 -0.8238  0.0588 -0.3649
 3271SOL     OW 9947   3.242   1.156   2.992  0.2067  0.0006  0.4046
 3271SOL    HW1 9948   3.297   1.129   3.065  0.2709  0.2767  0.4595
 3271SOL    HW2 9949   3.191   1.078   2.970  1.1358 -0.4850 -0.1251
 3272SOL     OW 9950   3.444   2.701   2.180  0.6575  0.3279 -0.3206
 3272SOL    HW1 9951   3.454   2.632   2.114 -1.4463  0.0568 -0.4273
 3272SOL    HW2 9952   3.443   2.782   2.131  0.3529  0.2177 -0.4993
 3273SOL     OW 9953   0.934   0.997   1.193  0.2637  0.0564  0.8552
 3273SOL    HW1 9954   0.850   1.040   1.179  0.1610  0.2912  2.0926
 3273SOL    HW2 9955   0.983   1.059   1.247  1.7214  0.4804 -0.8353
 3274SOL     OW 9956   1.497   3.229   4.400  0.5616 -0.3230 -0.2463
 3274SOL    HW1 9957   1.440   3.191   4.467  0.7750 -0.6715 -0.2575
 3274SOL    HW2 9958   1.576   3.254   4.449  1.7103 -2.7398 -0.7091
 3275SOL     OW 9959   4.777   2.707   2.476 -0.4276 -0.3864  0.4668
 3275SOL    HW1 9960   4.810   2.685   2.389 -0.3074 -1.2091  0.7166
 3275SOL    HW2 9961   4.685   2.730   2.462 -0.2764 -0.0250  0.0544
 3276SOL     OW 9962   1.547   4.820   3.246 -0.1693  0.4960  0.7748
 3276SOL    HW1 9963   1.477   4.785   3.191 -0.5823 -0.7022  1.9986
 3276SOL    HW2 9964   1.603   4.744   3.264  1.5343  1.4463 -0.2480
 3277SOL     OW 9965   4.995   4.719   4.765  0.3244 -0.1346  0.3560
 3277SOL    HW1 9966   4.937   4.765   4.703 -0.4040 -1.7796 -0.2303
 3277SOL    HW2 9967   4.937   4.689   4.834  0.7146 -0.5913  0.4864
 3278SOL     OW 9968   0.741   1.347   4.172  0.5055  0.0101  0.1072
 3278SOL    HW1 9969   0.700   1.395   4.244 -0.6183 -2.4207  1.1854
 3278SOL    HW2 9970   0.835   1.356   4.189  0.3334  1.4320  0.4903
 3279SOL     OW 9971   2.584   3.220   0.800  0.3882  0.3773 -0.6765
 3279SOL    HW1 9972   2.676   3.196   0.784  0.3730 -0.5151  0.4572
 3279SOL    HW2 9973   2.556   3.161   0.870 -0.8018  1.2287 -0.4123
 3280SOL     OW 9974   3.759   2.052   0.111 -0.1055  0.0794 -0.2293
 3280SOL    HW1 9975   3.705   1.982   0.073 -1.3389  1.0998 -0.3851
 3280SOL    HW2 9976   3.698   2.108   0.157  0.9743  0.6792  0.5169
 3281SOL     OW 9977   4.283   0.837   2.962 -0.2472  0.6151  0.6025
 3281SOL    HW1 9978   4.188   0.849   2.960 -0.2531  0.6380  0.9982
 3281SOL    HW2 9979   4.318   0.926   2.959 -0.2688  0.6958  2.1896
 3282SOL     OW 9980   0.934   1.127   0.849  0.4885  0.5067  0.2096
 3282SOL    HW1 9981   0.995   1.106   0.920 -0.9141 -1.9055  0.8132
 3282SOL    HW2 9982   0.990   1.148   0.774  2.1566 -2.4097  0.5052
 3283SOL     OW 9983   3.827   2.971   4.646 -0.3628  0.0137  0.8149
 3283SOL    HW1 9984   3.909   2.922   4.645  0.5070  1.4103  1.2450
 3283SOL    HW2 9985   3.848   3.053   4.602 -2.1539 -0.4976 -1.2069
 3284SOL     OW 9986   2.569   0.587   1.996  0.6031 -0.9077  0.1922
 3284SOL    HW1 9987   2.497   0.648   1.984  0.7899 -0.6995  0.1325
 3284SOL    HW2 9988   2.615   0.587   1.912  2.7549  1.6204  1.2458
 3285SOL     OW 9989   3.435   4.075   0.107 -0.0170  0.1171 -0.0327
 3285SOL    HW1 9990   3.454   4.168   0.124  0.1120 -0.0008  0.4885
 3285SOL    HW2 9991   3.487   4.053   0.030  2.1079 -0.2384  1.4393
 3286SOL     OW 9992   3.173   4.236   1.223 -0.5594 -0.2553 -0.4717
 3286SOL    HW1 9993   3.107   4.239   1.154 -1.4714  0.3472  0.3921
 3286SOL    HW2 9994   3.123   4.230   1.304  0.3152  2.2980  0.3643
 3287SOL     OW 9995   1.121   1.217   4.799 -0.2234 -0.0424 -0.3317
 3287SOL    HW1 9996   1.143   1.291   4.742  2.9133 -0.0968  0.6115
 3287SOL    HW2 9997   1.100   1.257   4.883 -0.4641 -0.1397 -0.3462
 3288SOL     OW 9998   2.761   4.165   3.925  0.0940  0.2507  1.0079
 3288SOL    HW1 9999   2.829   4.194   3.864 -0.7500  0.7494  0.2742
 3288SOL    HW210000   2.794   4.081   3.958  0.1938 -0.5016 -0.8387
 3289SOL     OW10001   3.284   2.948   2.921  0.7184  0.2604 -0.4210
 3289SOL    HW110002   3.192   2.927   2.938  1.0643  0.3701  1.7835
 3289SOL    HW210003   3.322   2.865   2.892  0.0967  0.0356 -0.6154
 3290SOL     OW10004   3.017   1.570   1.813 -0.3210  0.0876  0.1195
 3290SOL    HW110005   3.014   1.483   1.773 -0.5120  0.1183  0.0662
 3290SOL    HW210006   3.110   1.590   1.820 -0.3002  0.7666 -1.7595
 3291SOL     OW10007   3.307   3.318   1.616 -0.0556 -0.6345  0.1660
 3291SOL    HW110008   3.387   3.275   1.646  1.0761  0.8240 -0.6168
 3291SOL    HW210009   3.303   3.299   1.522 -1.1660 -1.4883  0.3703
 3292SOL     OW10010   0.022   3.115   1.568  0.1196  0.2809 -0.1416
 3292SOL    HW110011  -0.052   3.139   1.624  0.6703  0.5281  0.4974
 3292SOL    HW210012   0.097   3.113   1.628  0.8111  1.0165 -0.9636
 3293SOL     OW10013   2.698   1.700   3.227  0.2734  0.6179  1.0444
 3293SOL    HW110014   2.722   1.686   3.318  3.3714 -0.2498  0.2568
 3293SOL    HW210015   2.741   1.782   3.203  1.1699 -0.1423 -0.0729
 3294SOL     OW10016   2.737   2.392   0.385  0.8129 -0.2673  0.8186
 3294SOL    HW110017   2.817   2.347   0.358  1.2795  0.7687  0.4308
 3294SOL    HW210018   2.699   2.424   0.303  2.0053  2.5187  1.2604
 3295SOL     OW10019   0.708   4.902   2.877 -0.6019 -0.2627  0.3396
 3295SOL    HW110020   0.750   4.880   2.960  0.4668 -3.7873 -0.9336
 3295SOL    HW210021   0.651   4.828   2.858 -1.0163  0.5431 -1.9212
 3296SOL     OW10022   1.308   0.617   1.056  0.3961  0.3254 -0.0762
 3296SOL    HW110023   1.314   0.555   1.129  0.2125 -0.4611 -0.7133
 3296SOL    HW210024   1.314   0.703   1.097 -0.3263 -0.0857  0.9408
 3297SOL     OW10025   2.121   2.075   3.480 -1.1942  0.3426 -0.1879
 3297SOL    HW110026   2.171   2.148   3.445  1.2979 -2.2399 -2.6034
 3297SOL    HW210027   2.052   2.059   3.416 -1.4287  0.2427  0.0839
 3298SOL     OW10028   1.519   0.443   3.514 -0.3135  0.1295 -0.7305
 3298SOL    HW110029   1.452   0.389   3.473 -1.9471  0.8039  0.9450
 3298SOL    HW210030   1.539   0.398   3.596 -1.4681  1.8195  0.5380
 3299SOL     OW10031   0.328   3.422   3.584 -0.2068  0.4464  0.2556
 3299SOL    HW110032   0.361   3.335   3.606  0.9926 -0.5680 -4.4021
 3299SOL    HW210033   0.237   3.407   3.557 -0.8928  1.2237  1.9673
 3300SOL     OW10034   4.249   1.418   4.852 -0.2194 -0.2873 -0.2626
 3300SOL    HW110035   4.271   1.392   4.763  0.2046  2.7892 -1.1740
 3300SOL    HW210036   4.301   1.496   4.868 -3.0144  1.4392  1.2620
 3301SOL     OW10037   0.131   3.760   3.607 -0.4600  0.0858  0.7082
 3301SOL    HW110038   0.142   3.849   3.641 -0.4623  0.3344  0.0815
 3301SOL    HW210039   0.220   3.726   3.599 -0.4335  0.1877  0.5563
 3302SOL     OW10040   3.264   3.254   0.249 -0.0154  0.4076  0.7191
 3302SOL    HW110041   3.359   3.254   0.234 -0.0497 -0.3285  0.4961
 3302SOL    HW210042   3.231   3.321   0.189  0.2924  0.2470  0.3673
 3303SOL     OW10043   2.783   1.118   4.154 -0.6002 -0.7711  0.5670
 3303SOL    HW110044   2.846   1.068   4.206 -0.6015 -1.7621 -0.3540
 3303SOL    HW210045   2.835   1.160   4.086 -0.3682  1.8095  2.2167
 3304SOL     OW10046   3.944   4.583   3.137  0.7729  0.0090  0.4802
 3304SOL    HW110047   3.964   4.657   3.079 -0.1869  1.2071  1.5959
 3304SOL    HW210048   4.029   4.558   3.174  1.4074 -0.8114 -1.4138
 3305SOL     OW10049   2.017   2.349   0.339 -0.0261 -0.3467  0.1606
 3305SOL    HW110050   1.946   2.349   0.403  0.6595  1.6331  1.0161
 3305SOL    HW210051   2.094   2.325   0.389  0.2771 -0.2298 -0.2428
 3306SOL     OW10052   1.427   4.244   3.356 -1.0001 -0.2573 -0.0179
 3306SOL    HW110053   1.338   4.272   3.377 -0.1962 -0.0249  3.6477
 3306SOL    HW210054   1.447   4.177   3.421  1.5237 -0.2413 -0.6796
 3307SOL     OW10055   3.056   4.893   5.026 -0.7792  0.2366  0.1947
 3307SOL    HW110056   2.975   4.891   4.976 -0.5107  2.3486 -0.4109
 3307SOL    HW210057   3.113   4.953   4.979  0.2722  0.6462  1.8817
 3308SOL     OW10058   4.877   4.568   2.759 -0.7356  0.5104  0.0538
 3308SOL    HW110059   4.932   4.492   2.775 -0.7328  0.2939 -0.9451
 3308SOL    HW210060   4.821   4.574   2.837 -0.1304  0.0238  0.5328
 3309SOL     OW10061   1.139   3.562   1.393  0.3473  0.0170  0.0006
 3309SOL    HW110062   1.169   3.487   1.444 -1.3071 -1.0963 -0.5627
 3309SOL    HW210063   1.144   3.532   1.302 -4.4751 -1.2773 -0.1273
 3310SOL     OW10064   0.703   3.480   4.054 -0.0155  0.0964 -0.6111
 3310SOL    HW110065   0.785   3.431   4.058  0.3797  0.8025  0.6077
 3310SOL    HW210066   0.670   3.466   3.966  1.0139 -0.8558 -0.8577
 3311SOL     OW10067   2.999   0.672   4.046 -0.2059 -0.0785  0.1615
 3311SOL    HW110068   2.910   0.663   4.011 -0.2308 -1.2733  0.4920
 3311SOL    HW210069   2.986   0.694   4.138 -0.1814 -1.0591  0.4105
 3312SOL     OW10070   4.552   0.634   0.624  0.4527 -0.3963 -0.1862
 3312SOL    HW110071   4.513   0.706   0.574 -1.3095 -0.9045  0.4016
 3312SOL    HW210072   4.543   0.557   0.567  0.2946 -0.5795  0.0841
 3313SOL     OW10073   2.388   4.466   0.298 -0.8038 -0.1677  0.5194
 3313SOL    HW110074   2.313   4.416   0.330 -0.3339 -1.1646  0.1148
 3313SOL    HW210075   2.355   4.555   0.289 -2.6162 -0.9632 -1.7291
 3314SOL     OW10076   0.802   4.358   2.866  0.0131 -0.2993  0.0555
 3314SOL    HW110077   0.840   4.297   2.804  0.5602  0.6320 -0.5487
 3314SOL    HW210078   0.865   4.363   2.938 -0.2301 -0.7463  0.3072
 3315SOL     OW10079   1.805   0.616   3.286  0.2943 -0.0033  0.9301
 3315SOL    HW110080   1.808   0.524   3.313  1.1951 -0.6128 -1.0952
 3315SOL    HW210081   1.839   0.616   3.197 -0.6798  2.1688  0.5028
 3316SOL     OW10082   0.975   2.508   1.063 -0.1873 -0.1802  0.2805
 3316SOL    HW110083   0.949   2.555   1.143  0.6156  0.5127  0.1562
 3316SOL    HW210084   0.905   2.526   1.001 -0.5928 -0.3414  0.6859
 3317SOL     OW10085   4.568   1.582   4.385  0.3075  0.5790  0.2135
 3317SOL    HW110086   4.581   1.632   4.466  0.0571  0.3084  0.4214
 3317SOL    HW210087   4.656   1.576   4.347  0.1265  2.6123 -0.6794
 3318SOL     OW10088   4.982   0.802   2.795 -0.6039  0.1499 -0.4104
 3318SOL    HW110089   4.969   0.789   2.889  1.7108 -0.3801 -0.0971
 3318SOL    HW210090   4.970   0.896   2.781 -3.5979 -0.1014 -0.1291
 3319SOL     OW10091   1.515   4.395   4.188 -0.0020 -0.3697 -0.4058
 3319SOL    HW110092   1.419   4.397   4.190 -0.0399  2.2859 -0.6559
 3319SOL    HW210093   1.537   4.307   4.160 -2.3139 -1.6348  1.3860
 3320SOL     OW10094   2.682   0.283   4.418  0.6866  0.1198 -0.7237
 3320SOL    HW110095   2.684   0.379   4.426  0.1271 -0.0308  3.4653
 3320SOL    HW210096   2.604   0.266   4.365 -0.0251  1.9939 -0.3895
 3321SOL     OW10097   4.727   3.718   2.845 -0.2181 -0.0811 -0.2146
 3321SOL    HW110098   4.802   3.740   2.900  1.1046 -1.3210 -1.4386
 3321SOL    HW210099   4.669   3.794   2.852  0.2098  0.0922  2.2825
 3322SOL     OW10100   1.237   2.799   2.857  0.4992 -0.1305  0.1828
 3322SOL    HW110101   1.222   2.889   2.884 -1.3908 -0.5725  0.7678
 3322SOL    HW210102   1.331   2.785   2.870  0.8422  1.7628 -0.0309
 3323SOL     OW10103   4.702   0.697   0.863 -0.1804 -0.1486 -0.2050
 3323SOL    HW110104   4.672   0.668   0.776  0.3789  2.4118 -1.3482
 3323SOL    HW210105   4.624   0.694   0.918 -0.3353 -2.8259 -0.4399
 3324SOL     OW10106   4.861   4.593   2.186  0.0535  1.1590  0.2116
 3324SOL    HW110107   4.892   4.634   2.267 -0.3831 -1.1121  1.6254
 3324SOL    HW210108   4.844   4.502   2.211 -0.0037  0.3602 -2.4810
 3325SOL     OW10109   4.616   1.132   2.466  0.2075 -0.6016 -0.5975
 3325SOL    HW110110   4.617   1.100   2.556  0.8912  2.3291  0.5523
 3325SOL    HW210111   4.646   1.058   2.413  0.9504 -2.0291  1.7043
 3326SOL     OW10112   3.547   0.751   0.982 -1.1190 -0.3568 -0.1475
 3326SOL    HW110113   3.526   0.709   0.899 -2.0739 -1.1643  0.4792
 3326SOL    HW210114   3.594   0.831   0.958 -1.4651 -0.5380 -1.4630
 3327SOL     OW10115   4.275   4.923   0.823 -0.3137 -0.1950 -0.1037
 3327SOL    HW110116   4.204   4.863   0.799 -1.4518  0.8663  0.4561
 3327SOL    HW210117   4.313   4.885   0.902  0.3765 -1.2645 -0.9330
 3328SOL     OW10118   2.827   0.206   2.774 -0.1772  0.4733 -0.5213
 3328SOL    HW110119   2.867   0.166   2.696  1.3026 -0.6769  0.7677
 3328SOL    HW210120   2.883   0.280   2.795  0.5423 -0.3372  0.5118
 3329SOL     OW10121   3.512   2.980   3.702  0.6998  0.0712 -0.6141
 3329SOL    HW110122   3.567   3.026   3.639 -0.6918 -0.1709 -2.0536
 3329SOL    HW210123   3.530   2.887   3.687  0.3126  0.0094 -0.6958
 3330SOL     OW10124   3.033   0.568   3.112  0.6596  0.2848  0.8645
 3330SOL    HW110125   2.980   0.647   3.117 -3.6655 -2.0521 -1.7418
 3330SOL    HW210126   3.055   0.548   3.203 -2.6604  1.7952  2.1658
 3331SOL     OW10127   1.175   4.791   0.987 -0.4160 -0.5918 -0.2733
 3331SOL    HW110128   1.157   4.802   0.894 -0.9463 -0.2729 -0.1332
 3331SOL    HW210129   1.271   4.787   0.992 -0.3411  0.4201 -0.7178
 3332SOL     OW10130   3.532   2.166   2.154  0.0878  0.0002 -0.2709
 3332SOL    HW110131   3.563   2.154   2.064  2.0144  0.1259  0.3354
 3332SOL    HW210132   3.600   2.217   2.197 -1.1250  0.5599  1.1045
 3333SOL     OW10133   3.208   1.128   1.365 -0.5124 -0.1169 -0.5972
 3333SOL    HW110134   3.115   1.106   1.371 -0.0907 -1.5757  1.3860
 3333SOL    HW210135   3.247   1.057   1.314 -0.1917 -0.5614  0.2503
 3334SOL     OW10136   2.163   4.177   1.850  0.2399 -0.2487  0.7163
 3334SOL    HW110137   2.173   4.166   1.945  0.4584  0.7361  0.8098
 3334SOL    HW210138   2.092   4.240   1.840 -0.3663 -0.9968  0.1966
 3335SOL     OW10139   0.615   2.062   0.599  0.4248  0.0542 -0.0447
 3335SOL    HW110140   0.694   2.112   0.620 -0.7545  1.6555  0.8501
 3335SOL    HW210141   0.552   2.128   0.568 -0.3368 -1.2823 -1.4611
 3336SOL     OW10142   4.812   3.916   0.751  0.3761 -0.0690  0.1647
 3336SOL    HW110143   4.823   4.011   0.759 -1.1090  0.1483 -0.0777
 3336SOL    HW210144   4.832   3.882   0.838 -2.7455  0.8912  1.3986
 3337SOL     OW10145   4.295   1.933   4.568  0.1319 -0.1259  0.1646
 3337SOL    HW110146   4.257   1.961   4.484 -1.3513  0.1368  0.8976
 3337SOL    HW210147   4.389   1.930   4.551 -0.1273 -0.0768 -1.5114
 3338SOL     OW10148   1.512   1.432   3.902 -0.2432  0.1475  0.1838
 3338SOL    HW110149   1.571   1.397   3.835  0.7435  1.3437  0.3920
 3338SOL    HW210150   1.490   1.356   3.955 -0.4395 -0.6823 -1.0417
 3339SOL     OW10151   4.401   1.641   2.824  0.2357 -0.1561 -0.6810
 3339SOL    HW110152   4.341   1.588   2.770  1.3312 -1.4487 -0.6841
 3339SOL    HW210153   4.480   1.588   2.831  1.0160  1.0667  0.1860
 3340SOL     OW10154   1.709   2.109   1.284  0.7369  0.1454 -0.4572
 3340SOL    HW110155   1.786   2.158   1.311  0.6694 -0.8320  1.6979
 3340SOL    HW210156   1.640   2.137   1.344 -0.1457 -0.1951 -1.2916
 3341SOL     OW10157   0.680   0.266   4.611  0.3174 -0.2663  0.5549
 3341SOL    HW110158   0.652   0.327   4.544 -0.1554 -0.4661  0.5660
 3341SOL    HW210159   0.665   0.312   4.694  1.7817  0.3489  0.5129
 3342SOL     OW10160   1.251   0.553   2.857 -0.0520 -0.0915  0.4881
 3342SOL    HW110161   1.230   0.514   2.941 -0.8795 -1.2998 -0.2450
 3342SOL    HW210162   1.212   0.641   2.861 -0.0343 -0.1160  1.3619
 3343SOL     OW10163   3.845   2.546   0.342  0.3961  0.6068  0.5579
 3343SOL    HW110164   3.807   2.476   0.396  0.9871  0.0858  0.3032
 3343SOL    HW210165   3.933   2.557   0.376  0.5461  0.7318  0.1290
 3344SOL     OW10166   2.949   2.251   0.349 -0.0222  0.1659  0.6374
 3344SOL    HW110167   2.974   2.167   0.309 -0.0713  0.5317 -0.1858
 3344SOL    HW210168   2.969   2.240   0.442 -2.0770 -1.5680  0.9484
 3345SOL     OW10169   3.463   2.730   4.874  0.2673 -0.3962  0.2278
 3345SOL    HW110170   3.467   2.751   4.967  1.6735 -1.7763  0.5205
 3345SOL    HW210171   3.546   2.686   4.855  0.0618 -0.0697 -1.7132
 3346SOL     OW10172   4.021   3.564   0.069  0.5987 -0.5246  0.0315
 3346SOL    HW110173   4.017   3.527  -0.019  1.1617 -0.2509 -0.1146
 3346SOL    HW210174   4.095   3.624   0.066  0.7746 -0.6971  0.7611
 3347SOL     OW10175   3.189   1.838   4.202 -0.0229 -0.1504 -0.2363
 3347SOL    HW110176   3.129   1.870   4.269 -0.4278 -0.4560 -0.4513
 3347SOL    HW210177   3.254   1.787   4.250  1.1489  1.6925  0.2308
 3348SOL     OW10178   1.742   4.001   5.007 -0.7792  0.6085  0.4333
 3348SOL    HW110179   1.718   4.089   4.978 -1.3625 -0.1908 -1.6865
 3348SOL    HW210180   1.682   3.943   4.961  0.9128 -1.0426  0.1762
 3349SOL     OW10181   3.271   4.598   2.214 -0.4872  0.3794  0.1144
 3349SOL    HW110182   3.192   4.647   2.237  0.6679  1.7516  1.3438
 3349SOL    HW210183   3.267   4.520   2.270 -0.3705  1.0654  1.1110
 3350SOL     OW10184   1.231   1.821   2.200 -0.9976  0.0360  0.1171
 3350SOL    HW110185   1.186   1.802   2.118 -1.5588 -2.9110  1.0020
 3350SOL    HW210186   1.165   1.804   2.268  0.3107 -0.5152  1.2876
 3351SOL     OW10187   3.238   4.688   1.111 -0.1621 -0.2999 -0.2783
 3351SOL    HW110188   3.262   4.729   1.194 -0.5558  0.4142 -0.5080
 3351SOL    HW210189   3.293   4.731   1.046 -1.5025  0.8663 -0.7085
 3352SOL     OW10190   4.700   0.934   3.016  0.1976 -0.1913  0.8300
 3352SOL    HW110191   4.792   0.909   3.025  0.8112  1.3591 -0.7485
 3352SOL    HW210192   4.652   0.852   3.031  1.9072 -1.4335 -0.0853
 3353SOL     OW10193   3.155   3.234   1.998 -0.1305 -0.0751  0.8413
 3353SOL    HW110194   3.078   3.292   2.002  0.6053  0.9339  0.8553
 3353SOL    HW210195   3.124   3.150   2.031 -1.1307  0.4347  1.2286
 3354SOL     OW10196   4.464   0.815   1.000 -0.1981  0.2073 -0.5140
 3354SOL    HW110197   4.377   0.780   1.020  0.7090 -1.7510  0.3250
 3354SOL    HW210198   4.447   0.893   0.948 -2.4705  0.4853  0.5115
 3355SOL     OW10199   1.929   1.307   4.502  0.5333  0.5244  0.6521
 3355SOL    HW110200   1.985   1.367   4.551  0.8551  0.4271  0.4114
 3355SOL    HW210201   1.921   1.230   4.557 -0.4128  1.0304  1.2539
 3356SOL     OW10202   4.666   2.200   3.607  0.7842 -0.2618  0.2817
 3356SOL    HW110203   4.608   2.248   3.548  0.3929 -0.6608  0.3370
 3356SOL    HW210204   4.624   2.207   3.693  1.8141  1.0857  0.7058
 3357SOL     OW10205   4.122   3.229   1.316  0.0865 -0.3211 -0.1735
 3357SOL    HW110206   4.086   3.298   1.261  1.7085  0.2582 -0.5710
 3357SOL    HW210207   4.138   3.271   1.401 -3.4599 -1.4797  1.2546
 3358SOL     OW10208   1.761   3.585   0.937  0.5439 -0.4604 -0.0654
 3358SOL    HW110209   1.706   3.546   0.869  1.0894  0.5366 -1.1052
 3358SOL    HW210210   1.839   3.616   0.891  1.0723 -0.0539  1.0666
 3359SOL     OW10211   1.106   3.380   3.265 -0.3006  0.2632 -0.1176
 3359SOL    HW110212   1.125   3.346   3.352  1.7142 -0.8649 -0.9179
 3359SOL    HW210213   1.011   3.382   3.260 -0.5748 -3.4781  0.7298
 3360SOL     OW10214   1.088   2.750   0.168 -0.3480  0.1007 -0.0045
 3360SOL    HW110215   1.052   2.832   0.200 -0.0901  0.8113 -1.4617
 3360SOL    HW210216   1.098   2.696   0.246  1.0633  2.0424  1.2352
 3361SOL     OW10217   0.208   5.005   1.952 -0.5154  0.1435  0.9447
 3361SOL    HW110218   0.250   4.918   1.952 -2.0517 -0.6497  2.5359
 3361SOL    HW210219   0.115   4.986   1.961 -1.2227  1.8984 -1.5173
 3362SOL     OW10220   1.579   0.615   1.907  0.3351 -0.3006  0.5522
 3362SOL    HW110221   1.610   0.524   1.914  0.2352 -0.3750  0.0793
 3362SOL    HW210222   1.645   0.658   1.852 -0.7726 -0.6540 -1.1262
 3363SOL     OW10223   3.866   1.489   0.958  0.0167  1.3171 -0.9472
 3363SOL    HW110224   3.960   1.472   0.957 -0.3750 -1.6273  0.1942
 3363SOL    HW210225   3.856   1.565   1.015  1.6672  0.9314 -0.0555
 3364SOL     OW10226   0.059   3.573   0.593  0.6168  0.1935  0.2795
 3364SOL    HW110227   0.008   3.521   0.531 -1.7655  1.1473  1.2938
 3364SOL    HW210228   0.097   3.510   0.653  2.1093 -0.6693 -1.5034
 3365SOL     OW10229   1.319   3.954   1.495  0.1135 -0.3982  0.3972
 3365SOL    HW110230   1.403   3.907   1.497  0.9938  1.1295  2.1457
 3365SOL    HW210231   1.305   3.973   1.402  3.1308  1.6502  0.2116
 3366SOL     OW10232   4.537   1.285   4.747 -0.1748 -0.0769  0.1721
 3366SOL    HW110233   4.516   1.230   4.823 -2.3702  3.0574  2.0691
 3366SOL    HW210234   4.464   1.272   4.687  0.6474 -1.1783 -0.6149
 3367SOL     OW10235   4.504   0.550   1.283 -0.3857  0.8587 -0.0658
 3367SOL    HW110236   4.413   0.538   1.308  0.0939 -2.0920  0.6447
 3367SOL    HW210237   4.503   0.552   1.187 -1.1433 -0.3062 -0.1048
 3368SOL     OW10238   1.895   2.155   4.012  0.1604 -0.1954 -0.1377
 3368SOL    HW110239   1.893   2.249   3.995  0.4056 -0.2370 -0.4212
 3368SOL    HW210240   1.935   2.118   3.933  0.0694 -0.5356 -0.0255
 3369SOL     OW10241   4.670   3.201   2.253  0.6070  0.0635  0.4029
 3369SOL    HW110242   4.595   3.246   2.214  0.9327  1.5430  1.4003
 3369SOL    HW210243   4.685   3.126   2.196 -0.9047  0.3800 -0.4698
 3370SOL     OW10244   2.436   0.201   4.272 -0.5306  0.2668  0.1965
 3370SOL    HW110245   2.395   0.184   4.188 -2.3420 -0.1516  1.1223
 3370SOL    HW210246   2.368   0.244   4.324  0.0862 -0.7153  1.8920
 3371SOL     OW10247   2.182   2.224   4.491 -0.2302 -0.2208  0.1087
 3371SOL    HW110248   2.118   2.268   4.435 -1.6273 -2.1094  0.1123
 3371SOL    HW210249   2.130   2.166   4.547  1.4981 -2.5912 -0.5477
 3372SOL     OW10250   1.310   3.564   2.739  0.9200  0.9053  0.4750
 3372SOL    HW110251   1.254   3.641   2.726 -2.0908 -1.1759  0.2260
 3372SOL    HW210252   1.299   3.541   2.832  0.0128 -0.4761  0.0474
 3373SOL     OW10253   3.987   2.825   3.179 -0.6287  0.2267  0.3831
 3373SOL    HW110254   3.920   2.874   3.133 -0.2140  2.2127  1.7810
 3373SOL    HW210255   4.070   2.867   3.154 -0.2840  0.4509  1.8064
 3374SOL     OW10256   2.955   2.124   2.937  0.0211  0.0720  0.2265
 3374SOL    HW110257   3.024   2.140   2.872 -1.4400 -0.2196 -1.4560
 3374SOL    HW210258   2.987   2.048   2.987  0.2765 -1.0031 -1.5084
 3375SOL     OW10259   1.607   2.599   4.936 -0.0869  0.2217  0.1221
 3375SOL    HW110260   1.604   2.509   4.902  1.4087 -0.2921  1.2612
 3375SOL    HW210261   1.539   2.645   4.886 -3.5426 -2.3493  2.0010
 3376SOL     OW10262   2.411   2.027   2.140  0.3791  0.2216 -0.4445
 3376SOL    HW110263   2.416   2.012   2.046 -2.1124  2.3448 -1.0361
 3376SOL    HW210264   2.501   2.046   2.166  0.9465  0.8630 -2.6789
 3377SOL     OW10265   4.306   3.536   2.067 -0.0413  0.2032  0.0417
 3377SOL    HW110266   4.287   3.527   1.973  1.5508  2.5321 -0.5836
 3377SOL    HW210267   4.221   3.557   2.106 -1.0437 -2.3788 -0.5434
 3378SOL     OW10268   1.610   2.075   3.405  0.1268  0.1240 -0.0569
 3378SOL    HW110269   1.692   2.026   3.397 -0.0581 -0.0084 -1.3941
 3378SOL    HW210270   1.637   2.166   3.408  0.3555  0.0534  0.0563
 3379SOL     OW10271   0.862   2.336   4.496 -0.3025  0.5841 -0.2336
 3379SOL    HW110272   0.835   2.331   4.404  1.4899 -0.5740 -0.7612
 3379SOL    HW210273   0.905   2.252   4.512 -1.7423  0.2081  2.0887
 3380SOL     OW10274   2.479   1.162   4.793  0.3334 -0.0347 -0.4668
 3380SOL    HW110275   2.504   1.074   4.823 -2.8857 -0.5951  1.1012
 3380SOL    HW210276   2.523   1.222   4.853  0.1082 -0.7998  0.5019
 3381SOL     OW10277   1.760   4.231   3.647  0.2547 -0.5297 -0.3319
 3381SOL    HW110278   1.747   4.273   3.562 -0.3172 -2.7586 -1.4231
 3381SOL    HW210279   1.847   4.192   3.641  0.1847 -0.7559  0.0669
 3382SOL     OW10280   2.360   0.046   3.314  0.1010  0.4127  0.6102
 3382SOL    HW110281   2.281   0.093   3.284 -0.4875 -1.5707 -1.2293
 3382SOL    HW210282   2.359   0.056   3.409 -1.2447  2.1289  0.4776
 3383SOL     OW10283   0.378   3.401   0.618  0.1748  0.1857 -0.1557
 3383SOL    HW110284   0.430   3.409   0.697 -0.8146 -1.9397  0.7925
 3383SOL    HW210285   0.410   3.321   0.576 -2.9522 -1.8941  1.0806
 3384SOL     OW10286   4.860   3.978   0.384  0.0058 -0.3370 -0.0432
 3384SOL    HW110287   4.936   3.936   0.423  0.4280 -0.7876 -1.3101
 3384SOL    HW210288   4.880   3.983   0.291 -1.2120  0.1907 -0.2986
 3385SOL     OW10289   1.257   2.997   3.261  0.2089  0.0338 -0.0690
 3385SOL    HW110290   1.324   3.041   3.208 -0.1109  0.4281 -0.1464
 3385SOL    HW210291   1.174   3.022   3.221 -0.1603  1.7922  1.6596
 3386SOL     OW10292   3.204   3.917   0.861  0.6043 -0.1786  0.2803
 3386SOL    HW110293   3.109   3.927   0.857  0.7071  2.0683 -5.2766
 3386SOL    HW210294   3.218   3.823   0.874 -2.4129 -0.7493  0.0275
 3387SOL     OW10295   0.895   1.643   1.152 -0.4572 -1.1386 -0.7681
 3387SOL    HW110296   0.973   1.669   1.202  0.1983 -0.7048 -1.9580
 3387SOL    HW210297   0.821   1.669   1.207  0.1093  3.1821 -1.6387
 3388SOL     OW10298   3.560   0.616   1.224 -0.3294  0.1411 -0.0637
 3388SOL    HW110299   3.617   0.681   1.265  0.6582 -0.3019 -0.7048
 3388SOL    HW210300   3.541   0.653   1.137  0.5427 -0.5846 -0.5750
 3389SOL     OW10301   2.535   0.239   3.199 -0.0751  0.4543 -0.1409
 3389SOL    HW110302   2.493   0.254   3.114 -1.2008  1.1170  0.5192
 3389SOL    HW210303   2.486   0.166   3.237 -1.5833  2.1221  1.2293
 3390SOL     OW10304   4.125   3.433   1.905 -0.0509  0.6373  0.7101
 3390SOL    HW110305   4.165   3.350   1.932 -1.2559  0.1920  1.1922
 3390SOL    HW210306   4.035   3.428   1.937 -1.3995  0.3868 -2.7270
 3391SOL     OW10307   0.698   2.712   3.182 -0.4765  0.2388  0.5112
 3391SOL    HW110308   0.638   2.644   3.213 -1.1227  0.1095 -0.9167
 3391SOL    HW210309   0.668   2.730   3.093  1.6221  0.1705 -0.2520
 3392SOL     OW10310   1.410   0.744   0.078  0.3880  0.0910 -0.5571
 3392SOL    HW110311   1.397   0.651   0.097  2.5999 -0.2657 -0.4725
 3392SOL    HW210312   1.503   0.751   0.056  0.5409  2.4785  0.5347
 3393SOL     OW10313   1.209   4.371   4.211  0.2043 -0.1833  0.2251
 3393SOL    HW110314   1.252   4.329   4.285  2.7684  1.1652 -0.3710
 3393SOL    HW210315   1.194   4.461   4.239 -2.0841 -0.5344  0.2978
 3394SOL     OW10316   1.128   1.077   4.167  0.2316  0.3172 -0.4121
 3394SOL    HW110317   1.139   1.032   4.251 -2.3376  0.4914  0.1077
 3394SOL    HW210318   1.090   1.162   4.191 -3.0917 -0.6329 -1.8174
 3395SOL     OW10319   1.818   2.525   4.407  0.1201 -0.3803  0.5611
 3395SOL    HW110320   1.896   2.541   4.354 -0.4421 -2.0823 -0.8575
 3395SOL    HW210321   1.807   2.605   4.459  2.0514  0.3895 -0.1584
 3396SOL     OW10322   1.996   0.890   1.450 -0.5604  0.5346 -0.2720
 3396SOL    HW110323   1.967   0.800   1.465 -0.4837  0.8407  2.2665
 3396SOL    HW210324   2.084   0.881   1.413 -0.1201 -0.4843  0.9542
 3397SOL     OW10325   1.851   0.631   2.806  0.0139 -0.2913 -0.2270
 3397SOL    HW110326   1.810   0.700   2.753 -0.9328 -0.6783 -0.0155
 3397SOL    HW210327   1.850   0.554   2.749  3.9137  0.5127 -1.7008
 3398SOL     OW10328   2.860   2.479   0.612 -0.2308  0.2831 -0.2219
 3398SOL    HW110329   2.941   2.514   0.575  0.3293 -1.0753 -0.3190
 3398SOL    HW210330   2.820   2.429   0.541 -1.3550  1.2430 -0.2886
 3399SOL     OW10331   2.345   0.914   2.520  0.2670  0.1406 -0.1670
 3399SOL    HW110332   2.330   0.819   2.521 -0.5543  0.2658 -0.6006
 3399SOL    HW210333   2.269   0.950   2.475  0.7952  0.9743 -0.4003
 3400SOL     OW10334   4.721   4.112   4.312  0.1293 -0.2239 -0.4843
 3400SOL    HW110335   4.808   4.094   4.277  0.4837  1.0452 -0.3084
 3400SOL    HW210336   4.729   4.096   4.406  0.3064  0.3580 -0.3997
 3401SOL     OW10337   0.851   2.202   0.654  1.1133  0.2648 -0.0863
 3401SOL    HW110338   0.852   2.216   0.749  2.0167  1.2145 -0.2252
 3401SOL    HW210339   0.833   2.288   0.617 -1.7495 -0.5036 -0.7448
 3402SOL     OW10340   1.626   1.598   2.773  0.1074 -0.1189  0.1255
 3402SOL    HW110341   1.582   1.513   2.779  0.2076 -0.2897 -1.2613
 3402SOL    HW210342   1.681   1.602   2.852 -1.1511 -0.5975  1.0570
 3403SOL     OW10343   4.179   1.134   2.124 -0.1624  0.1945 -0.0310
 3403SOL    HW110344   4.164   1.149   2.217 -2.4201  0.2107 -0.3372
 3403SOL    HW210345   4.219   1.047   2.120  2.3238  1.1956  1.0455
 3404SOL     OW10346   1.949   4.550   2.395 -0.4681 -0.6932 -0.0886
 3404SOL    HW110347   1.929   4.498   2.473 -0.8939  0.7378  0.7920
 3404SOL    HW210348   1.919   4.638   2.417 -0.9185 -0.3276 -2.0122
 3405SOL     OW10349   0.605   4.348   1.266  0.0254 -0.3053  0.1016
 3405SOL    HW110350   0.581   4.421   1.208  0.9732  0.0505  0.1445
 3405SOL    HW210351   0.684   4.311   1.227  0.6611 -0.0805  1.1594
 3406SOL     OW10352   4.788   1.062   3.982 -0.1396 -0.0516  0.5485
 3406SOL    HW110353   4.826   1.147   4.005  0.0535  0.7354 -2.3115
 3406SOL    HW210354   4.837   0.999   4.035  1.1198  1.4429  1.2390
 3407SOL     OW10355   0.107   2.776   3.805  0.0729 -0.6282 -0.2245
 3407SOL    HW110356   0.028   2.793   3.856  0.3580  0.3174 -0.0819
 3407SOL    HW210357   0.136   2.689   3.834 -0.4335 -0.6150  0.3459
 3408SOL     OW10358   3.786   1.250   2.964  0.7468  0.1683 -0.2200
 3408SOL    HW110359   3.878   1.234   2.987  0.9611 -0.1180 -1.2358
 3408SOL    HW210360   3.789   1.281   2.874 -0.0388  1.6946  0.2416
 3409SOL     OW10361   3.167   4.824   3.385  0.1598 -0.4696  0.0445
 3409SOL    HW110362   3.092   4.785   3.431  0.7793 -0.8094  0.7861
 3409SOL    HW210363   3.208   4.880   3.450  1.5425 -1.6046  0.1990
 3410SOL     OW10364   1.720   2.601   0.458 -0.0121 -0.4064 -0.1255
 3410SOL    HW110365   1.772   2.678   0.435  2.2554 -1.4840  1.1190
 3410SOL    HW210366   1.688   2.620   0.546 -0.5491 -0.3656 -0.3252
 3411SOL     OW10367   4.009   1.630   0.048  0.1243  0.1450 -0.4355
 3411SOL    HW110368   4.059   1.580   0.112 -1.1199  0.4259  0.8149
 3411SOL    HW210369   4.074   1.663  -0.013  1.3164 -0.4623  0.4651
 3412SOL     OW10370   2.101   1.188   4.154  0.2862 -0.4506 -0.1552
 3412SOL    HW110371   2.109   1.110   4.099  0.3452 -1.4429  1.2006
 3412SOL    HW210372   2.185   1.193   4.201 -0.1676 -0.2736  0.6565
 3413SOL     OW10373   4.353   4.117   1.632 -0.2878 -0.6913  0.1217
 3413SOL    HW110374   4.280   4.103   1.691  1.2099 -2.0914  1.7696
 3413SOL    HW210375   4.349   4.045   1.570 -1.1057  0.0531 -0.7236
 3414SOL     OW10376   3.428   1.710   4.315 -0.0510  0.1185  0.2554
 3414SOL    HW110377   3.453   1.744   4.400 -0.5427  1.8375 -0.2488
 3414SOL    HW210378   3.442   1.616   4.322  1.8602  0.4450  1.5425
 3415SOL     OW10379   4.248   0.711   3.457 -1.3993 -0.3886 -0.4083
 3415SOL    HW110380   4.271   0.665   3.537 -0.2397  0.6855 -0.0863
 3415SOL    HW210381   4.153   0.719   3.460 -1.4432 -1.1277  0.4159
 3416SOL     OW10382   0.281   2.729   1.835  0.3162 -0.0683 -0.0353
 3416SOL    HW110383   0.363   2.724   1.883  0.1567 -1.1499  0.1619
 3416SOL    HW210384   0.217   2.763   1.898  0.6218  0.8541 -0.2139
 3417SOL     OW10385   3.747   2.837   1.674  0.2356  0.1877  0.4180
 3417SOL    HW110386   3.749   2.825   1.579 -0.9596 -0.4715  0.4544
 3417SOL    HW210387   3.655   2.857   1.693  0.2736 -0.5926  1.5269
 3418SOL     OW10388   4.389   2.623   1.065 -0.3156  0.0634  0.0845
 3418SOL    HW110389   4.464   2.564   1.050 -2.6442 -2.8060 -1.1906
 3418SOL    HW210390   4.395   2.687   0.994  1.6486  0.7980  0.8271
 3419SOL     OW10391   4.046   4.127   1.691  0.3408  0.8957 -0.3218
 3419SOL    HW110392   3.975   4.176   1.732  0.9467  1.2578  0.3168
 3419SOL    HW210393   4.033   4.037   1.721  1.1014  1.2539  1.1512
 3420SOL     OW10394   3.998   3.504   3.332  0.0447  0.2326  0.4629
 3420SOL    HW110395   4.031   3.569   3.395 -0.1681  1.1034 -0.2987
 3420SOL    HW210396   4.077   3.466   3.294  0.1724  0.3908  0.5633
 3421SOL     OW10397   3.673   3.590   3.572 -0.0594 -0.6137 -0.5682
 3421SOL    HW110398   3.736   3.599   3.644  0.8537 -1.6367 -1.2175
 3421SOL    HW210399   3.589   3.579   3.616  0.4629 -1.0856  0.3506
 3422SOL     OW10400   3.775   1.349   3.963 -0.1743 -0.2631  0.5927
 3422SOL    HW110401   3.782   1.272   3.907 -0.4650  0.4227 -0.4240
 3422SOL    HW210402   3.860   1.355   4.006 -0.7014 -2.1182  2.0385
 3423SOL     OW10403   2.401   2.093   0.639 -0.0862 -0.0455 -0.0789
 3423SOL    HW110404   2.323   2.062   0.686 -0.3678  0.2733 -0.3322
 3423SOL    HW210405   2.424   2.175   0.683 -0.3974  0.2947 -0.5454
 3424SOL     OW10406   3.412   2.043   3.894  0.1878  0.1445 -0.0344
 3424SOL    HW110407   3.335   2.014   3.845  0.2543 -0.0962 -0.0010
 3424SOL    HW210408   3.378   2.066   3.981  0.1872 -0.2031  0.0616
 3425SOL     OW10409   2.970   3.427   2.641  1.0068  0.2195  0.6685
 3425SOL    HW110410   2.923   3.376   2.575 -0.3262 -1.3784  2.7140
 3425SOL    HW210411   3.063   3.412   2.621  0.6413 -0.6306 -0.5174
 3426SOL     OW10412   1.036   3.786   2.254 -0.1087 -0.5810  0.0282
 3426SOL    HW110413   0.951   3.778   2.213 -0.0122 -3.4318  0.2216
 3426SOL    HW210414   1.035   3.722   2.325  2.1343 -0.6135  0.1067
 3427SOL     OW10415   0.313   4.751   1.921 -0.2029  0.4885 -0.2737
 3427SOL    HW110416   0.230   4.705   1.933  0.3724 -0.1281  1.8436
 3427SOL    HW210417   0.350   4.713   1.842  0.0242 -2.4649  1.1047
 3428SOL     OW10418   1.665   1.320   1.975 -0.5495 -0.1381 -0.5283
 3428SOL    HW110419   1.698   1.401   2.013  2.3807 -0.7000 -1.5875
 3428SOL    HW210420   1.573   1.337   1.956 -0.5148  2.2296  1.0532
 3429SOL     OW10421   3.225   0.298   4.012  0.1200 -0.5807 -0.2044
 3429SOL    HW110422   3.228   0.390   3.988 -1.3649 -0.5563 -0.3849
 3429SOL    HW210423   3.272   0.293   4.096 -1.1861  0.6407  0.6463
 3430SOL     OW10424   2.087   0.627   1.147 -0.3955  0.0287  0.6691
 3430SOL    HW110425   2.075   0.691   1.217  0.1237 -0.7537  1.4989
 3430SOL    HW210426   2.083   0.542   1.192 -1.4115 -0.5391 -0.4491
 3431SOL     OW10427   4.712   0.548   4.860 -0.5476 -0.0806  0.2940
 3431SOL    HW110428   4.657   0.470   4.858 -1.8272  0.7996 -0.2545
 3431SOL    HW210429   4.767   0.541   4.782  0.1047 -0.9397  0.8168
 3432SOL     OW10430   3.641   3.889   3.867 -0.0035  0.1706 -0.0582
 3432SOL    HW110431   3.733   3.881   3.839 -0.2460 -0.8238 -0.6270
 3432SOL    HW210432   3.603   3.803   3.848 -0.3785 -0.3682  2.7189
 3433SOL     OW10433   4.097   1.997   0.594 -0.1910  0.2193 -0.3378
 3433SOL    HW110434   4.119   2.090   0.583 -0.0824  0.1925 -0.3472
 3433SOL    HW210435   4.043   1.994   0.673  3.9173 -0.3205  2.7694
 3434SOL     OW10436   2.922   4.882   0.312  0.3463 -0.0953 -0.8506
 3434SOL    HW110437   2.969   4.892   0.229  1.5253 -0.8296 -0.3031
 3434SOL    HW210438   2.984   4.837   0.369 -0.5911  0.0404  0.3128
 3435SOL     OW10439   0.744   2.508   4.155  0.5862  0.3719 -0.1556
 3435SOL    HW110440   0.772   2.421   4.183 -0.2708  0.4136  0.9059
 3435SOL    HW210441   0.759   2.563   4.232  2.7928  1.5816 -1.3423
 3436SOL     OW10442   2.209   1.679   2.456  0.0922  0.2766  0.6189
 3436SOL    HW110443   2.169   1.593   2.445  0.6383  0.1557 -0.5447
 3436SOL    HW210444   2.143   1.741   2.423 -0.8918  0.4711  2.7574
 3437SOL     OW10445   4.119   3.305   0.114  0.4755 -0.4530  0.3301
 3437SOL    HW110446   4.139   3.399   0.109  5.7824 -0.8500  4.7579
 3437SOL    HW210447   4.028   3.302   0.145 -0.5415  2.9886 -1.7921
 3438SOL     OW10448   4.204   2.874   3.029 -0.2212  0.9568  0.3425
 3438SOL    HW110449   4.262   2.944   2.998 -0.9309  0.6556 -1.8574
 3438SOL    HW210450   4.187   2.821   2.951 -3.0943  0.7928  0.9695
 3439SOL     OW10451   2.585   2.091   4.003  0.7420  0.2683  0.1119
 3439SOL    HW110452   2.567   2.166   4.059 -2.9034  0.3024 -0.8676
 3439SOL    HW210453   2.541   2.018   4.047 -1.3474  0.1035 -2.0793
 3440SOL     OW10454   1.277   3.001   4.808  0.7956  0.2727 -0.5131
 3440SOL    HW110455   1.319   2.992   4.893  0.4874  1.4706 -0.2262
 3440SOL    HW210456   1.197   2.949   4.814  0.2978  1.1134  0.2578
 3441SOL     OW10457   2.972   3.641   3.191  0.1600 -0.4124  0.0006
 3441SOL    HW110458   3.030   3.701   3.237 -0.6653  0.5680 -0.2019
 3441SOL    HW210459   2.996   3.651   3.099 -1.0978  0.8822 -0.2087
 3442SOL     OW10460   3.830   0.423   2.318  0.3259  0.0367 -0.2109
 3442SOL    HW110461   3.920   0.397   2.297  0.2980  0.1848 -0.5164
 3442SOL    HW210462   3.824   0.414   2.413  0.1593 -1.6051 -0.3499
 3443SOL     OW10463   0.560   3.103   2.341 -0.1209  0.6766 -1.0313
 3443SOL    HW110464   0.535   3.133   2.428 -1.8239 -0.9300 -0.9005
 3443SOL    HW210465   0.531   3.012   2.338  2.2328 -0.0941 -2.3913
 3444SOL     OW10466   0.687   1.707   0.942 -0.4237  0.4980 -0.3245
 3444SOL    HW110467   0.767   1.718   0.992 -0.5274  0.2968 -0.1118
 3444SOL    HW210468   0.716   1.685   0.853 -0.2432 -1.3763  0.1627
 3445SOL     OW10469   2.604   1.739   4.155  0.5017  0.1958  0.4754
 3445SOL    HW110470   2.540   1.773   4.091 -0.3246 -2.2800 -0.1191
 3445SOL    HW210471   2.552   1.718   4.232  1.0360  0.5054  0.9245
 3446SOL     OW10472   0.419   0.515   0.752 -0.0616 -0.1987 -0.0412
 3446SOL    HW110473   0.393   0.432   0.710 -3.3849  0.2586  0.8432
 3446SOL    HW210474   0.454   0.489   0.837  1.9273 -0.7977 -0.9685
 3447SOL     OW10475   1.946   4.906   2.810  0.2691  0.3925 -0.1670
 3447SOL    HW110476   1.893   4.964   2.865  0.6421  0.0438  0.5780
 3447SOL    HW210477   2.014   4.874   2.869 -0.6230 -1.7527 -0.2146
 3448SOL     OW10478   3.848   2.519   2.734  0.6488 -0.3444 -0.5535
 3448SOL    HW110479   3.859   2.606   2.695 -0.3773 -0.6119 -1.5101
 3448SOL    HW210480   3.934   2.478   2.726  1.2136  0.6640  0.1445
 3449SOL     OW10481   4.577   4.579   3.419 -0.5131 -0.4178 -0.0814
 3449SOL    HW110482   4.638   4.518   3.460 -1.4026 -2.6446 -1.8649
 3449SOL    HW210483   4.499   4.578   3.475  0.0816  0.4186  0.7894
 3450SOL     OW10484   1.934   4.681   3.075 -0.0684 -0.5277  0.8716
 3450SOL    HW110485   1.896   4.629   3.004  0.3229  0.1542  0.1405
 3450SOL    HW210486   1.954   4.617   3.143  0.7923 -1.4259 -0.1686
 3451SOL     OW10487   2.796   1.054   1.940 -0.3686 -1.0455 -0.2050
 3451SOL    HW110488   2.776   1.143   1.911 -0.4344 -0.3284  1.8837
 3451SOL    HW210489   2.838   1.013   1.865  0.2570  0.9517 -1.0027
 3452SOL     OW10490   0.491   0.932   3.411  0.2980  0.3784 -0.3349
 3452SOL    HW110491   0.438   1.000   3.369 -0.1641 -0.4223 -1.0676
 3452SOL    HW210492   0.581   0.959   3.396  0.1232  1.3787  0.3023
 3453SOL     OW10493   2.543   2.304   4.192 -0.0137  0.1714  0.2884
 3453SOL    HW110494   2.581   2.391   4.180  0.4332 -0.0947 -0.3177
 3453SOL    HW210495   2.596   2.264   4.261 -0.0212  0.2696  0.3512
 3454SOL     OW10496   2.399   3.984   2.057 -0.3422  0.0687 -0.1562
 3454SOL    HW110497   2.350   3.907   2.028  0.3581 -0.6691  0.5898
 3454SOL    HW210498   2.478   3.949   2.098 -0.3935  1.1438  0.9305
 3455SOL     OW10499   0.791   4.261   2.414  0.1022 -0.2253 -0.2999
 3455SOL    HW110500   0.838   4.343   2.405 -0.2365  0.0810  0.6568
 3455SOL    HW210501   0.839   4.200   2.358  2.0400 -0.0956  1.1379
 3456SOL     OW10502   2.374   1.290   1.517 -0.2537 -0.0015  0.1999
 3456SOL    HW110503   2.284   1.258   1.525  0.1011 -1.6970 -1.7755
 3456SOL    HW210504   2.425   1.235   1.577 -0.3073 -0.0943  0.1602
 3457SOL     OW10505   4.978   3.357   2.776 -0.0799 -0.7075  0.4384
 3457SOL    HW110506   4.913   3.288   2.764 -1.0304  0.0536  1.0550
 3457SOL    HW210507   5.027   3.331   2.854 -0.1849 -0.8679  0.4499
 3458SOL     OW10508   1.630   4.615   1.281  0.0591  0.1513  0.8543
 3458SOL    HW110509   1.679   4.609   1.363 -1.1023 -3.7411  1.4324
 3458SOL    HW210510   1.572   4.690   1.293  1.7530  1.3055  2.4366
 3459SOL     OW10511   3.150   2.324   0.103  0.1928  0.0647  0.1727
 3459SOL    HW110512   3.194   2.334   0.018  1.3668 -2.6915  0.3646
 3459SOL    HW210513   3.057   2.315   0.081  0.3002  0.8870 -0.6695
 3460SOL     OW10514   3.207   1.781   3.260  0.5352  0.0103  0.6067
 3460SOL    HW110515   3.250   1.734   3.332  0.4821  0.3435  0.8614
 3460SOL    HW210516   3.238   1.872   3.269  0.3744  0.0934  0.3277
 3461SOL     OW10517   2.350   4.422   1.699 -0.2583 -0.6213  0.2759
 3461SOL    HW110518   2.376   4.451   1.786 -0.7524  1.3988 -0.1742
 3461SOL    HW210519   2.431   4.421   1.648 -0.4287  2.2618 -0.2363
 3462SOL     OW10520   2.524   3.227   0.503 -0.2847  0.5541 -0.2042
 3462SOL    HW110521   2.439   3.243   0.460  0.3421 -0.8567 -2.1259
 3462SOL    HW210522   2.501   3.199   0.592 -1.7950  1.0039 -0.4180
 3463SOL     OW10523   2.608   1.604   0.257  0.4328 -0.2756 -0.1433
 3463SOL    HW110524   2.655   1.676   0.300 -2.7532  0.5770  2.2075
 3463SOL    HW210525   2.591   1.637   0.169  1.9502  0.3815 -0.2339
 3464SOL     OW10526   1.108   4.842   0.738  0.1624 -0.3972 -0.3772
 3464SOL    HW110527   1.017   4.866   0.719  0.6321  1.4926 -0.4751
 3464SOL    HW210528   1.137   4.793   0.661 -0.3135  0.3398 -1.0360
 3465SOL     OW10529   2.111   0.704   4.811  1.1700  0.2349  0.3709
 3465SOL    HW110530   2.017   0.720   4.804  1.3607  0.8467 -1.5015
 3465SOL    HW210531   2.118   0.614   4.844 -0.0573  0.3366  0.9439
 3466SOL     OW10532   4.570   1.084   4.935 -0.1673 -0.5804 -0.2779
 3466SOL    HW110533   4.666   1.079   4.940 -0.2075 -1.8392 -0.2636
 3466SOL    HW210534   4.543   0.993   4.923 -1.5225 -0.6960  2.8127
 3467SOL     OW10535   4.446   0.867   1.915  0.7798 -0.1254  0.6681
 3467SOL    HW110536   4.446   0.956   1.879  0.0796 -0.8033 -1.1115
 3467SOL    HW210537   4.506   0.818   1.857 -2.2975 -1.8539 -1.3362
 3468SOL     OW10538   3.577   2.912   0.580 -0.1814  0.3465  0.1252
 3468SOL    HW110539   3.563   2.951   0.667  1.7206  0.1895  0.5571
 3468SOL    HW210540   3.490   2.908   0.541 -0.9780  1.1743  1.7088
 3469SOL     OW10541   0.055   1.274   2.208  0.5120  0.0159 -0.0047
 3469SOL    HW110542   0.082   1.258   2.118  0.7014 -0.8239  0.1944
 3469SOL    HW210543   0.007   1.195   2.233 -0.5808  0.7432  0.2425
 3470SOL     OW10544   4.849   4.340   2.245 -0.2571 -0.1298 -0.3473
 3470SOL    HW110545   4.917   4.274   2.231  1.0906  0.7651  1.4206
 3470SOL    HW210546   4.814   4.319   2.332 -2.3483 -0.6000 -1.2448
 3471SOL     OW10547   1.836   0.119   2.973 -0.5603 -0.2811 -0.4723
 3471SOL    HW110548   1.744   0.105   2.951 -0.8679  2.1253 -0.9798
 3471SOL    HW210549   1.842   0.100   3.067 -1.6140 -0.2512 -0.3939
 3472SOL     OW10550   0.320   4.147   0.622  0.8401 -0.9157  0.3159
 3472SOL    HW110551   0.296   4.072   0.678 -0.1264 -1.8131 -1.2486
 3472SOL    HW210552   0.239   4.172   0.579  1.1294  1.1493  0.8750
 3473SOL     OW10553   1.012   3.786   4.722  0.4797 -0.1005  1.0871
 3473SOL    HW110554   0.983   3.843   4.651  0.0114 -0.1921  1.2058
 3473SOL    HW210555   0.943   3.791   4.787  1.9423  1.8234  2.5984
 3474SOL     OW10556   4.660   4.290   3.842  0.3048  0.0819 -0.2537
 3474SOL    HW110557   4.592   4.236   3.801  0.0578 -0.2564  0.5837
 3474SOL    HW210558   4.720   4.312   3.770 -0.8662  0.6806 -1.0765
 3475SOL     OW10559   0.071   4.648   1.995  0.6729 -0.1568 -0.0497
 3475SOL    HW110560   0.059   4.568   1.944 -0.4577 -0.9030  1.3033
 3475SOL    HW210561   0.013   4.637   2.070  0.2208  2.0972  0.0121
 3476SOL     OW10562   1.070   1.141   1.562 -1.0270 -0.0513 -0.3972
 3476SOL    HW110563   1.122   1.094   1.628 -2.4614 -1.0518  0.0701
 3476SOL    HW210564   1.124   1.137   1.483 -0.6211 -1.5610 -0.0845
 3477SOL     OW10565   1.945   3.393   3.129 -0.3308  0.5821 -0.0183
 3477SOL    HW110566   1.967   3.360   3.216 -2.5445  0.4389  0.5348
 3477SOL    HW210567   1.856   3.361   3.113 -0.2626  1.2672 -2.0115
 3478SOL     OW10568   4.025   3.790   0.582 -0.5800 -0.1861 -0.2213
 3478SOL    HW110569   4.051   3.882   0.571 -1.7574  0.1009 -0.7010
 3478SOL    HW210570   4.094   3.740   0.538  0.7539  0.3731  1.1442
 3479SOL     OW10571   0.412   1.051   2.334 -0.1317  0.3196 -0.0601
 3479SOL    HW110572   0.374   1.131   2.371 -2.3740 -0.5398 -0.3687
 3479SOL    HW210573   0.454   1.080   2.253 -2.4773  0.9986 -1.1361
 3480SOL     OW10574   1.434   1.346   1.766  0.2253 -0.1745  0.8378
 3480SOL    HW110575   1.508   1.372   1.711 -0.6418 -1.6158 -1.1647
 3480SOL    HW210576   1.428   1.251   1.754 -2.6477  0.0091 -0.0826
 3481SOL     OW10577   0.690   0.690   2.069 -0.2488 -0.3852 -0.6372
 3481SOL    HW110578   0.616   0.748   2.086 -1.1134 -1.5114 -0.4071
 3481SOL    HW210579   0.715   0.709   1.978  1.3928  2.3728  0.2876
 3482SOL     OW10580   0.038   0.808   4.498  0.3102  0.1038  0.4657
 3482SOL    HW110581   0.084   0.823   4.581  1.7718 -0.6289 -0.1817
 3482SOL    HW210582   0.100   0.759   4.444 -1.0500 -0.4684 -0.6515
 3483SOL     OW10583   4.152   1.352   1.455 -0.8155  0.0679  0.1212
 3483SOL    HW110584   4.161   1.260   1.479 -0.0384 -0.1165 -0.7976
 3483SOL    HW210585   4.188   1.400   1.530 -0.7405 -0.3977  0.3875
 3484SOL     OW10586   4.244   1.298   0.357 -0.1134  0.3792  0.3160
 3484SOL    HW110587   4.239   1.208   0.326  1.9209  0.2571  0.1980
 3484SOL    HW210588   4.260   1.290   0.452 -2.2975  0.6905  0.7570
 3485SOL     OW10589   1.199   0.827   4.918 -0.8275 -0.2355  0.2992
 3485SOL    HW110590   1.127   0.843   4.979 -1.1480 -1.0321  0.1387
 3485SOL    HW210591   1.275   0.810   4.974 -1.0020 -0.4380  0.4766
 3486SOL     OW10592   1.246   3.592   2.099 -0.2678 -0.3938  0.1383
 3486SOL    HW110593   1.177   3.635   2.151  0.3110  2.2095 -1.0755
 3486SOL    HW210594   1.327   3.631   2.130  0.4568 -1.6286 -0.1343
 3487SOL     OW10595   3.390   4.738   3.240  0.1382  1.2348  0.3934
 3487SOL    HW110596   3.391   4.740   3.144  0.2004 -2.4978  0.1914
 3487SOL    HW210597   3.297   4.738   3.262  0.0868  0.1658  0.2063
 3488SOL     OW10598   4.913   2.802   0.027  0.3610 -0.4319  0.1812
 3488SOL    HW110599   4.922   2.715   0.065  1.5827 -0.8264 -0.9356
 3488SOL    HW210600   5.000   2.842   0.038  0.5806 -0.3389 -1.5649
 3489SOL     OW10601   0.048   0.720   2.038  0.3248 -0.9307  0.0936
 3489SOL    HW110602   0.076   0.641   1.992  5.5830  1.5459 -1.7947
 3489SOL    HW210603   0.091   0.715   2.123 -0.9627 -0.9178  0.7662
 3490SOL     OW10604   4.004   2.663   1.784 -0.0529 -0.4335  0.1728
 3490SOL    HW110605   3.981   2.574   1.758 -1.9295  0.3327 -0.9574
 3490SOL    HW210606   3.934   2.689   1.844 -0.2811  0.7628 -0.5940
 3491SOL     OW10607   0.536   4.217   1.582 -0.0398  0.5568 -0.7706
 3491SOL    HW110608   0.453   4.170   1.590  0.2020  0.0357 -1.2643
 3491SOL    HW210609   0.598   4.151   1.551  0.9345  0.5718  1.0404
 3492SOL     OW10610   0.463   0.226   1.582  0.0311 -0.1131 -0.2524
 3492SOL    HW110611   0.552   0.226   1.617 -0.1662  0.1694  0.2642
 3492SOL    HW210612   0.469   0.175   1.501  0.8059  0.4900 -0.5960
 3493SOL     OW10613   1.481   1.521   3.158  0.8108 -0.2314 -0.2163
 3493SOL    HW110614   1.537   1.522   3.236 -3.0549  2.2112  2.9609
 3493SOL    HW210615   1.433   1.438   3.164  1.0121 -0.3600 -0.3937
 3494SOL     OW10616   0.896   1.788   4.396  0.3280 -0.4377  0.0599
 3494SOL    HW110617   0.920   1.857   4.334 -0.3587 -1.0502 -0.9157
 3494SOL    HW210618   0.801   1.794   4.403  0.3881 -0.4356  0.9992
 3495SOL     OW10619   2.756   3.352   0.392  0.1871  0.2705 -0.3906
 3495SOL    HW110620   2.754   3.294   0.316 -0.8265  0.4669 -0.5299
 3495SOL    HW210621   2.676   3.331   0.441  1.1434 -0.3315  0.9986
 3496SOL     OW10622   1.338   3.876   3.888  0.0744 -0.6312  0.3119
 3496SOL    HW110623   1.255   3.862   3.933  1.2696  0.1222  2.9119
 3496SOL    HW210624   1.400   3.899   3.957  1.9331  1.1877 -1.7767
 3497SOL     OW10625   3.494   0.994   2.153 -0.5310 -0.8270  0.4155
 3497SOL    HW110626   3.584   1.012   2.127 -1.2345 -0.8743 -2.3722
 3497SOL    HW210627   3.476   0.907   2.118 -1.9874 -0.3501 -0.0842
 3498SOL     OW10628   2.213   1.516   1.956 -0.0025 -0.8092  0.5892
 3498SOL    HW110629   2.199   1.568   2.035 -0.2048  0.7041 -0.3993
 3498SOL    HW210630   2.297   1.473   1.970  1.2860  1.5252  0.5834
 3499SOL     OW10631   4.094   1.166   0.929  0.4123  0.0474  0.3471
 3499SOL    HW110632   4.062   1.231   0.867  0.6491  0.7735  0.9821
 3499SOL    HW210633   4.018   1.112   0.949  0.3510 -0.2584 -0.6313
 3500SOL     OW10634   0.740   4.769   4.522  0.2809 -0.0584 -0.1221
 3500SOL    HW110635   0.822   4.815   4.504  0.4258 -1.2136 -2.8818
 3500SOL    HW210636   0.682   4.837   4.556  1.4675  1.4781 -1.0168
 3501SOL     OW10637   3.530   4.498   0.564  0.2072 -0.4084  0.7124
 3501SOL    HW110638   3.479   4.510   0.644 -1.4260 -1.1198 -0.1869
 3501SOL    HW210639   3.611   4.456   0.593 -0.6091 -1.1853  1.9392
 3502SOL     OW10640   3.380   0.995   0.835 -0.3692 -0.4286  1.0916
 3502SOL    HW110641   3.346   0.907   0.852 -1.8380 -0.0141  0.4730
 3502SOL    HW210642   3.363   1.010   0.742  2.6749 -0.6318  0.4029
 3503SOL     OW10643   2.341   2.007   3.751  0.4998 -0.1704 -0.2924
 3503SOL    HW110644   2.282   1.955   3.698  1.0358 -1.2854  0.1704
 3503SOL    HW210645   2.290   2.084   3.776 -0.3946 -0.5999 -0.7670
 3504SOL     OW10646   1.704   2.567   2.201 -0.1233  0.1367 -0.1112
 3504SOL    HW110647   1.776   2.568   2.137  0.5623 -2.1430  0.5202
 3504SOL    HW210648   1.631   2.527   2.154 -0.1437  0.0195  0.0189
 3505SOL     OW10649   4.586   4.516   0.720  0.0511  0.2054  0.5303
 3505SOL    HW110650   4.626   4.514   0.807  2.9947  0.3782 -0.6918
 3505SOL    HW210651   4.635   4.584   0.673 -2.3986  1.0865 -0.8815
 3506SOL     OW10652   1.632   0.957   1.223 -0.2967 -0.9245  0.2027
 3506SOL    HW110653   1.653   0.984   1.133  1.4876  0.4289  0.9623
 3506SOL    HW210654   1.655   0.864   1.225 -0.5627 -1.0220 -0.7951
 3507SOL     OW10655   3.543   2.865   1.214  0.7060 -0.1585  0.1088
 3507SOL    HW110656   3.501   2.951   1.219  1.3276  0.2125 -0.6885
 3507SOL    HW210657   3.567   2.856   1.122  2.2742 -0.3835  0.5074
 3508SOL     OW10658   0.384   4.195   0.130  0.2062 -0.1010  0.7093
 3508SOL    HW110659   0.303   4.226   0.170 -0.5989 -0.4489 -0.5947
 3508SOL    HW210660   0.402   4.111   0.172 -0.7538 -0.5772  0.1978
 3509SOL     OW10661   0.606   2.774   1.167 -0.4355  0.0867  0.0595
 3509SOL    HW110662   0.582   2.858   1.127 -1.2756 -0.4870 -0.6892
 3509SOL    HW210663   0.693   2.755   1.133  0.5737  1.5197  1.6884
 3510SOL     OW10664   4.191   0.648   0.745 -0.2195  0.3446  0.0066
 3510SOL    HW110665   4.280   0.615   0.729 -0.0065  0.7197  0.3799
 3510SOL    HW210666   4.145   0.636   0.662 -0.0105 -0.4587  0.0005
 3511SOL     OW10667   4.724   1.520   1.290 -0.5167  0.6437  0.7749
 3511SOL    HW110668   4.644   1.568   1.312 -1.6788 -0.2156 -1.3091
 3511SOL    HW210669   4.713   1.435   1.333 -1.7332 -0.2181 -1.1386
 3512SOL     OW10670   1.144   3.674   3.545 -0.4439  0.2883 -0.6770
 3512SOL    HW110671   1.175   3.763   3.530 -0.4629  1.3446  3.9354
 3512SOL    HW210672   1.200   3.641   3.615 -2.1299 -2.3307 -0.4186
 3513SOL     OW10673   4.973   2.902   2.943 -0.5017 -0.2883 -0.4862
 3513SOL    HW110674   4.958   2.945   2.858 -0.3944  0.9736  0.1125
 3513SOL    HW210675   4.885   2.891   2.980 -0.4225  2.1498  0.6330
 3514SOL     OW10676   1.388   2.635   3.873  0.2487  0.4222  0.4885
 3514SOL    HW110677   1.440   2.573   3.925 -0.2527  0.8615  1.5342
 3514SOL    HW210678   1.304   2.640   3.918 -0.2339  0.7463 -0.4277
 3515SOL     OW10679   3.328   2.129   4.145  0.3732  0.4514  0.3153
 3515SOL    HW110680   3.347   2.181   4.223 -0.2305  1.2409 -0.0541
 3515SOL    HW210681   3.311   2.041   4.178 -1.5035  1.1179  1.2640
 3516SOL     OW10682   0.401   3.173   3.676  0.2411  0.6010  0.2670
 3516SOL    HW110683   0.485   3.162   3.630 -1.4159  0.6064 -3.0528
 3516SOL    HW210684   0.376   3.084   3.701  0.4981  0.4100 -0.1367
 3517SOL     OW10685   4.274   4.614   1.241  0.2010  0.2606  0.2481
 3517SOL    HW110686   4.266   4.708   1.254 -0.4275  0.5544 -1.8459
 3517SOL    HW210687   4.351   4.589   1.292  2.1633  2.4392 -1.3965
 3518SOL     OW10688   2.290   4.824   2.100  0.4881  0.3621 -0.4833
 3518SOL    HW110689   2.238   4.773   2.038  2.7307 -0.9073 -1.4436
 3518SOL    HW210690   2.334   4.890   2.046 -0.7856  2.0288  0.4444
 3519SOL     OW10691   3.925   3.035   1.673  0.0967  0.2945  0.3814
 3519SOL    HW110692   4.011   2.995   1.663  1.3470  1.3904  4.6070
 3519SOL    HW210693   3.864   2.962   1.670  1.3046 -0.7200 -0.9922
 3520SOL     OW10694   2.282   0.943   4.275  0.1937  0.1122 -0.0415
 3520SOL    HW110695   2.285   0.867   4.217 -0.1987 -0.8767  1.1897
 3520SOL    HW210696   2.374   0.966   4.289  0.3457  2.3036 -3.3875
 3521SOL     OW10697   1.042   3.082   1.454 -0.2823 -0.2384  0.5883
 3521SOL    HW110698   1.059   3.019   1.384  0.3577  0.3011  0.2462
 3521SOL    HW210699   1.064   3.035   1.535 -0.6692 -0.7408  0.4083
 3522SOL     OW10700   4.584   1.790   0.284 -0.1752  0.5228 -0.2836
 3522SOL    HW110701   4.494   1.760   0.275 -0.3786  0.7807  0.7287
 3522SOL    HW210702   4.582   1.852   0.357  1.1456 -0.8599  0.9961
 3523SOL     OW10703   4.394   2.228   0.066  0.2840  0.6343  0.1842
 3523SOL    HW110704   4.390   2.323   0.054 -3.2976  0.5381 -0.6667
 3523SOL    HW210705   4.378   2.214   0.159  2.6761  0.7997  0.6936
 3524SOL     OW10706   4.290   3.568   2.678 -0.7487  0.8658  0.1020
 3524SOL    HW110707   4.345   3.492   2.693 -1.5613 -0.4546 -2.9622
 3524SOL    HW210708   4.274   3.603   2.766  0.3997 -1.9214  1.5540
 3525SOL     OW10709   4.317   3.116   3.761 -0.7558 -0.0789 -0.2848
 3525SOL    HW110710   4.327   3.035   3.711  0.5313  1.0663 -1.9685
 3525SOL    HW210711   4.385   3.174   3.728 -0.8705  1.3073  1.7283
 3526SOL     OW10712   4.183   0.076   1.600  0.0658  0.2252  0.5862
 3526SOL    HW110713   4.227  -0.008   1.607 -0.5048 -0.1019  0.2386
 3526SOL    HW210714   4.209   0.123   1.680 -1.6404 -1.2416  2.0827
 3527SOL     OW10715   4.530   0.454   2.490 -0.6660  0.2845 -0.0477
 3527SOL    HW110716   4.616   0.422   2.519 -0.5338  1.8794  1.4989
 3527SOL    HW210717   4.531   0.444   2.395  1.2074  0.1862 -0.0472
 3528SOL     OW10718   0.232   1.432   0.188 -0.3230 -0.3106 -0.0661
 3528SOL    HW110719   0.207   1.383   0.110  1.5269 -0.3700 -0.6523
 3528SOL    HW210720   0.188   1.387   0.260  0.2865 -2.0547 -0.7426
 3529SOL     OW10721   3.989   3.800   2.001 -0.2092  0.1610  0.2622
 3529SOL    HW110722   3.895   3.805   2.019 -0.1912  1.3354  0.1068
 3529SOL    HW210723   4.019   3.724   2.052 -1.5481 -1.4171 -1.1810
 3530SOL     OW10724   2.787   2.909   4.295 -0.1417 -0.2056 -0.7872
 3530SOL    HW110725   2.748   2.961   4.365 -0.4257  1.0619 -1.8435
 3530SOL    HW210726   2.851   2.968   4.254 -0.9570 -0.4216 -2.4540
 3531SOL     OW10727   1.364   4.247   4.457  0.5023 -0.5132 -0.3980
 3531SOL    HW110728   1.337   4.163   4.421  1.6175 -1.2359  0.3853
 3531SOL    HW210729   1.292   4.272   4.515 -0.1767 -0.5447 -1.2063
 3532SOL     OW10730   4.945   1.033   2.293 -0.2679  0.1129 -0.1456
 3532SOL    HW110731   4.925   0.969   2.362  0.8042 -0.5959 -0.4524
 3532SOL    HW210732   4.883   1.013   2.223  0.2429 -0.8146 -0.3554
 3533SOL     OW10733   2.102   2.184   3.201 -0.3941 -0.2201  0.4000
 3533SOL    HW110734   2.193   2.191   3.230 -0.2156  0.5664 -0.3230
 3533SOL    HW210735   2.080   2.271   3.169 -1.5135 -0.3134  0.8650
 3534SOL     OW10736   0.300   0.244   2.058 -0.2273 -0.0176  0.1570
 3534SOL    HW110737   0.263   0.161   2.030  1.5105 -0.8641  0.2737
 3534SOL    HW210738   0.382   0.252   2.009  0.1482  1.1272  0.9216
 3535SOL     OW10739   0.005   4.651   4.116  0.1734  0.4085 -0.8421
 3535SOL    HW110740   0.099   4.666   4.117  0.4341 -1.1112  1.0497
 3535SOL    HW210741  -0.007   4.578   4.055 -0.0791  1.9743 -2.7686
 3536SOL     OW10742   1.751   0.428   0.086 -0.3862 -0.0614 -0.7399
 3536SOL    HW110743   1.802   0.481   0.147 -0.2650 -1.7163  0.6699
 3536SOL    HW210744   1.662   0.431   0.121 -0.1280 -1.8592  0.2066
 3537SOL     OW10745   1.708   3.211   5.000  0.2700 -1.1989 -0.5341
 3537SOL    HW110746   1.694   3.297   4.959  0.8595 -0.3536  0.9421
 3537SOL    HW210747   1.627   3.163   4.982 -0.8135  0.3092  0.0987
 3538SOL     OW10748   2.547   4.525   4.157  0.1803 -0.0132  0.1928
 3538SOL    HW110749   2.605   4.590   4.117  0.6223 -0.6808 -0.2644
 3538SOL    HW210750   2.606   4.461   4.197 -0.0873 -2.4093 -2.9134
 3539SOL     OW10751   0.227   1.859   1.687  0.5088 -0.4096  0.2914
 3539SOL    HW110752   0.146   1.906   1.708  1.4191  0.5392  1.8428
 3539SOL    HW210753   0.199   1.769   1.668 -1.1917  0.4796 -1.9289
 3540SOL     OW10754   4.767   1.880   4.166  0.5550 -0.2500  0.0038
 3540SOL    HW110755   4.672   1.880   4.171  0.5155 -0.8635 -0.6341
 3540SOL    HW210756   4.788   1.826   4.089  1.4483 -1.4463  1.0268
 3541SOL     OW10757   1.444   0.745   4.315 -0.3159  0.4153 -0.3616
 3541SOL    HW110758   1.357   0.770   4.348 -0.6545 -0.9045 -0.1858
 3541SOL    HW210759   1.469   0.670   4.370  0.1366 -0.3555 -1.5758
 3542SOL     OW10760   0.096   1.911   1.343  0.2230 -0.1082 -0.5318
 3542SOL    HW110761   0.077   1.881   1.254  2.3952 -2.0471 -0.4409
 3542SOL    HW210762   0.146   1.839   1.382  0.7677  1.3865  1.6940
 3543SOL     OW10763   0.401   2.553   2.177 -0.3997  0.2058  0.1820
 3543SOL    HW110764   0.436   2.487   2.118  0.5269  0.2306  0.6710
 3543SOL    HW210765   0.390   2.631   2.123 -1.0795 -0.2219 -0.3002
 3544SOL     OW10766   0.524   0.879   1.434  0.9468 -0.2143  0.0588
 3544SOL    HW110767   0.538   0.965   1.474  0.4396  0.2864 -0.8145
 3544SOL    HW210768   0.532   0.895   1.340  1.6645 -1.2871 -0.0660
 3545SOL     OW10769   1.200   0.771   4.407 -0.0836 -0.1209 -0.1152
 3545SOL    HW110770   1.136   0.807   4.468 -0.4103  1.2214 -1.2028
 3545SOL    HW210771   1.156   0.694   4.370 -0.2960 -0.3258  0.5367
 3546SOL     OW10772   0.897   0.529   4.483 -0.3609  0.5219 -0.1676
 3546SOL    HW110773   0.879   0.469   4.556 -0.6193  1.2447  0.3738
 3546SOL    HW210774   0.873   0.615   4.517 -0.8173  0.8239 -1.2291
 3547SOL     OW10775   1.026   0.167   1.635 -0.0038 -0.2612  0.2466
 3547SOL    HW110776   1.115   0.177   1.668 -0.0727 -0.8650  0.6240
 3547SOL    HW210777   1.038   0.140   1.544  0.1955 -0.2612  0.2720
 3548SOL     OW10778   1.186   1.279   2.908 -0.1916  0.3691 -0.3782
 3548SOL    HW110779   1.201   1.343   2.838 -0.3728 -0.5245 -1.2660
 3548SOL    HW210780   1.129   1.213   2.868 -0.3785 -0.1120  0.6515
 3549SOL     OW10781   2.068   0.442   1.728 -0.4704  0.2701 -0.0908
 3549SOL    HW110782   2.007   0.443   1.802 -1.3235 -1.4795 -0.7217
 3549SOL    HW210783   2.020   0.399   1.658  0.4759  1.5084 -1.5648
 3550SOL     OW10784   4.374   3.558  -0.018 -0.2253 -0.2437 -0.0446
 3550SOL    HW110785   4.316   3.539   0.055  0.7232 -0.1815  0.7354
 3550SOL    HW210786   4.420   3.638   0.007  0.7247 -0.6857 -0.3263
 3551SOL     OW10787   1.027   1.061   2.516  0.1674 -0.0627  0.1197
 3551SOL    HW110788   0.955   1.082   2.457  1.2049  1.2849 -0.7327
 3551SOL    HW210789   1.065   0.981   2.480 -1.4205 -1.3113  1.1094
 3552SOL     OW10790   2.894   4.282   0.591  0.0004  0.2355 -0.5432
 3552SOL    HW110791   2.864   4.229   0.664  0.2904  1.4185  0.4584
 3552SOL    HW210792   2.826   4.272   0.524 -0.6540 -0.2305  0.1841
 3553SOL     OW10793   1.219   2.229   3.129 -0.3390 -0.2308 -0.7560
 3553SOL    HW110794   1.190   2.205   3.217  0.1618 -0.2278 -0.5917
 3553SOL    HW210795   1.219   2.325   3.129 -0.6437 -0.2296 -0.8603
 3554SOL     OW10796   2.333   0.228   2.205 -0.2599  0.3185 -0.1145
 3554SOL    HW110797   2.322   0.196   2.294  0.6608  0.2547 -0.0223
 3554SOL    HW210798   2.243   0.246   2.175 -0.6768 -0.9091  0.3533
 3555SOL     OW10799   4.277   4.629   3.145 -0.0437 -0.5523  0.1816
 3555SOL    HW110800   4.270   4.685   3.069 -0.1630 -2.0466 -0.9602
 3555SOL    HW210801   4.219   4.668   3.210 -0.8174  0.1307 -0.8997
 3556SOL     OW10802   1.091   0.695   3.922 -0.1194 -0.5586  0.5172
 3556SOL    HW110803   1.089   0.612   3.874  1.0205  0.0333 -0.6341
 3556SOL    HW210804   1.145   0.677   3.999  0.5579 -0.7838  0.0068
 3557SOL     OW10805   4.304   0.134   4.772 -0.1658 -0.0670 -0.4503
 3557SOL    HW110806   4.334   0.223   4.753 -1.5568  0.3079 -1.0975
 3557SOL    HW210807   4.211   0.145   4.795 -0.3878 -1.3605 -0.6601
 3558SOL     OW10808   0.581   1.758   0.016 -0.0389  0.3342 -0.0533
 3558SOL    HW110809   0.559   1.670  -0.015 -0.1172  0.1505  0.5187
 3558SOL    HW210810   0.677   1.762   0.008 -0.0549  0.2853 -0.2996
 3559SOL     OW10811   1.610   4.163   2.818 -0.0394 -0.9216  0.1670
 3559SOL    HW110812   1.637   4.076   2.849 -2.7567 -1.3943  1.5816
 3559SOL    HW210813   1.653   4.224   2.878 -0.2100 -1.4860  0.8801
 3560SOL     OW10814   3.266   3.087   3.726 -0.0627  0.2483  0.2893
 3560SOL    HW110815   3.347   3.040   3.746 -0.4431 -1.0334 -0.9904
 3560SOL    HW210816   3.288   3.141   3.650 -0.4947 -0.4124 -0.3183
 3561SOL     OW10817   2.152   1.013   0.598 -0.2382 -0.0186  0.0518
 3561SOL    HW110818   2.223   1.075   0.583 -0.1976  0.5963  2.3586
 3561SOL    HW210819   2.190   0.927   0.582 -0.0429  0.4445 -2.3025
 3562SOL     OW10820   0.448   0.766   0.680 -0.9219  0.3566  0.4234
 3562SOL    HW110821   0.428   0.695   0.741  1.4253  0.3818  1.3230
 3562SOL    HW210822   0.423   0.846   0.727 -0.2214  0.3111  0.8787
 3563SOL     OW10823   0.215   0.173   1.716 -0.3307 -0.4173 -0.2470
 3563SOL    HW110824   0.291   0.188   1.661 -2.3431  0.3309 -3.0106
 3563SOL    HW210825   0.244   0.107   1.779  2.9052  0.6984 -0.3838
 3564SOL     OW10826   1.725   0.482   2.293 -0.1199 -0.1114 -0.9607
 3564SOL    HW110827   1.784   0.553   2.268 -1.2189  0.8177 -1.0062
 3564SOL    HW210828   1.773   0.402   2.272  1.7722  0.5635  0.5399
 3565SOL     OW10829   3.673   2.408   2.529  0.6197 -0.5653  0.0416
 3565SOL    HW110830   3.595   2.463   2.524  0.7100 -0.3812  0.6774
 3565SOL    HW210831   3.735   2.457   2.583  0.4751 -1.5526  1.1524
 3566SOL     OW10832   3.734   3.718   2.971  0.0189  0.2996 -0.2429
 3566SOL    HW110833   3.826   3.722   2.995 -0.3394 -0.7670  1.4490
 3566SOL    HW210834   3.687   3.751   3.048 -1.1211 -2.0418  0.1585
 3567SOL     OW10835   4.607   0.305   3.433  0.1154  0.2546  0.1386
 3567SOL    HW110836   4.664   0.238   3.395 -0.6399 -0.2192 -0.1647
 3567SOL    HW210837   4.597   0.370   3.363  1.4000  1.0517  0.6578
 3568SOL     OW10838   1.083   3.328   2.062  0.2868  0.5508 -0.2581
 3568SOL    HW110839   1.145   3.401   2.053  2.0111 -0.7762  0.2508
 3568SOL    HW210840   0.997   3.369   2.052  1.2175  2.4726 -1.0506
 3569SOL     OW10841   2.321   3.287   0.064 -0.0484  0.4588 -0.0946
 3569SOL    HW110842   2.391   3.243   0.016 -0.4075 -0.5215  0.2640
 3569SOL    HW210843   2.325   3.378   0.034  0.2900  0.0511 -1.3220
 3570SOL     OW10844   1.621   2.756   3.808  0.5635  0.0634 -0.1962
 3570SOL    HW110845   1.665   2.731   3.889  1.0378  0.0896 -0.4434
 3570SOL    HW210846   1.541   2.703   3.807  0.3441  0.3628  0.4881
 3571SOL     OW10847   3.147   0.448   0.440 -0.5462 -0.0829 -0.7954
 3571SOL    HW110848   3.124   0.398   0.362  1.3267  0.8734 -2.0252
 3571SOL    HW210849   3.134   0.387   0.512 -3.1362 -0.7363 -1.7189
 3572SOL     OW10850   3.388   3.342   3.596 -0.0988  0.0967 -0.1831
 3572SOL    HW110851   3.447   3.304   3.531  1.8328  0.0698  1.4892
 3572SOL    HW210852   3.319   3.384   3.545  2.0540  1.2852 -2.2996
 3573SOL     OW10853   0.296   4.998   4.631 -0.0375  0.1839 -0.4640
 3573SOL    HW110854   0.299   4.911   4.671  1.0477 -0.0568 -1.0466
 3573SOL    HW210855   0.256   5.054   4.699  0.5415 -0.4814  0.4432
 3574SOL     OW10856   4.922   3.049   1.866 -0.1235 -0.5703 -0.2282
 3574SOL    HW110857   4.946   2.970   1.817  0.7825  0.6405 -1.8855
 3574SOL    HW210858   4.856   3.091   1.811  1.1470  0.9924 -0.6226
 3575SOL     OW10859   1.064   4.161   4.967  0.3934 -0.3050  0.3036
 3575SOL    HW110860   0.992   4.142   4.907 -0.9559  0.7346  1.5463
 3575SOL    HW210861   1.141   4.164   4.911 -0.7774  0.3402 -1.3381
 3576SOL     OW10862   0.044   3.011   4.330 -0.3622 -0.1195 -0.3093
 3576SOL    HW110863   0.090   3.085   4.289  0.8293  0.6194  2.1642
 3576SOL    HW210864  -0.049   3.027   4.310 -0.1206  2.0054 -0.0117
 3577SOL     OW10865   1.186   2.617   4.113 -0.0675 -0.4192 -0.3107
 3577SOL    HW110866   1.154   2.705   4.090  0.7644  0.1785  0.7211
 3577SOL    HW210867   1.113   2.559   4.091 -0.4083  0.4443 -1.6019
 3578SOL     OW10868   4.174   2.526   2.194 -0.1501 -0.6690  0.1699
 3578SOL    HW110869   4.111   2.464   2.156 -0.4049 -0.8873  0.9360
 3578SOL    HW210870   4.212   2.479   2.268  0.2994 -0.2235  0.2283
 3579SOL     OW10871   1.782   2.006   0.590 -0.5182  0.2124  0.3144
 3579SOL    HW110872   1.780   2.097   0.560  0.6510 -0.5102 -2.2448
 3579SOL    HW210873   1.707   1.965   0.547 -1.6446  0.1244  2.2556
 3580SOL     OW10874   4.596   4.693   2.795  0.2281  0.0027  0.5845
 3580SOL    HW110875   4.520   4.672   2.741  0.3697  0.1164  0.3398
 3580SOL    HW210876   4.630   4.775   2.760 -0.9046  1.2072  2.1545
 3581SOL     OW10877   3.119   3.678   2.699 -0.0896 -0.0331 -0.0165
 3581SOL    HW110878   3.171   3.738   2.645 -1.1321 -0.8284 -2.0227
 3581SOL    HW210879   3.162   3.593   2.688  1.3051  0.2149  2.7109
 3582SOL     OW10880   3.068   0.450   3.372  0.1938  0.1867  0.1356
 3582SOL    HW110881   3.090   0.491   3.455 -1.1388 -0.8282  1.0452
 3582SOL    HW210882   2.988   0.495   3.344  0.6246  0.5084 -0.6018
 3583SOL     OW10883   3.105   1.547   3.324 -0.0843  0.2839  0.0731
 3583SOL    HW110884   3.102   1.500   3.241 -0.3183  0.8489 -0.2407
 3583SOL    HW210885   3.126   1.638   3.300 -2.0078  0.8780  0.4442
 3584SOL     OW10886   2.579   0.866   4.788  0.1591  0.1233  0.3688
 3584SOL    HW110887   2.500   0.869   4.733 -0.1333 -0.4236  0.7546
 3584SOL    HW210888   2.615   0.779   4.774 -0.7973 -0.6316  2.2323
 3585SOL     OW10889   1.749   0.095   4.332 -0.2269 -0.1107 -0.4789
 3585SOL    HW110890   1.750   0.034   4.258  0.8415  1.4702 -1.8525
 3585SOL    HW210891   1.783   0.044   4.405 -0.0461 -1.3522 -1.3854
 3586SOL     OW10892   4.374   1.688   1.704 -0.3485 -0.1894  0.2903
 3586SOL    HW110893   4.378   1.635   1.783 -2.0463 -0.2796  0.3410
 3586SOL    HW210894   4.459   1.674   1.662 -0.5375 -2.5359  0.5713
 3587SOL     OW10895   0.497   1.268   4.145 -0.0314  0.0697 -0.2867
 3587SOL    HW110896   0.586   1.300   4.154 -0.2007  0.1058  1.9001
 3587SOL    HW210897   0.506   1.181   4.105  0.8776  0.5110 -1.0522
 3588SOL     OW10898   1.304   1.659   0.340  0.0453 -0.2524  0.0369
 3588SOL    HW110899   1.325   1.748   0.311 -1.9558  0.3707  0.3660
 3588SOL    HW210900   1.381   1.608   0.314  0.8098  1.3547 -1.1161
 3589SOL     OW10901   4.229   4.178   1.996  0.7461  0.4205 -0.3625
 3589SOL    HW110902   4.312   4.159   1.952  0.3575 -1.1085 -0.4908
 3589SOL    HW210903   4.212   4.100   2.050 -0.2793  0.9909  0.1709
 3590SOL     OW10904   2.564   3.344   2.651  0.1719 -0.7280 -0.1517
 3590SOL    HW110905   2.630   3.330   2.582 -2.3747 -1.8774 -2.5904
 3590SOL    HW210906   2.539   3.255   2.677 -0.7379 -0.3259  0.3678
 3591SOL     OW10907   3.904   4.977   2.405 -0.1740  0.2191 -0.2756
 3591SOL    HW110908   3.878   4.904   2.349 -1.1317  0.7587 -0.5546
 3591SOL    HW210909   3.906   5.053   2.346 -1.8700  0.9310  0.5115
 3592SOL     OW10910   3.485   1.041   1.758  0.2482 -0.8078 -0.6182
 3592SOL    HW110911   3.391   1.024   1.757  0.1244 -0.2943  0.5881
 3592SOL    HW210912   3.523   0.971   1.704 -0.6455 -2.2226  0.5036
 3593SOL     OW10913   3.272   3.809   4.757  0.7811  0.1046 -0.1963
 3593SOL    HW110914   3.320   3.863   4.820  0.5733 -1.4726  1.3893
 3593SOL    HW210915   3.227   3.744   4.811 -0.9505 -0.1457 -1.8502
 3594SOL     OW10916   3.810   3.988   3.471  0.1679  1.0377  0.4003
 3594SOL    HW110917   3.856   3.996   3.554  1.0336  0.4808 -0.0091
 3594SOL    HW210918   3.724   3.952   3.494  0.7426 -0.0144  0.9695
 3595SOL     OW10919   1.457   1.333   4.308  0.0235 -0.3421  1.0839
 3595SOL    HW110920   1.471   1.409   4.365 -2.7374 -0.5424  2.2182
 3595SOL    HW210921   1.391   1.363   4.245  0.3347 -1.2245  0.3334
 3596SOL     OW10922   1.703   1.008   1.512 -0.6255  0.7016 -0.5711
 3596SOL    HW110923   1.775   1.070   1.503 -0.5229  0.5787 -0.5845
 3596SOL    HW210924   1.643   1.031   1.441 -0.0997  0.1157 -1.2170
 3597SOL     OW10925   1.496   4.282   1.980  0.1111 -0.7026  0.0013
 3597SOL    HW110926   1.451   4.219   2.036  1.5208 -1.4466  0.3497
 3597SOL    HW210927   1.453   4.273   1.895 -0.3482 -1.4336  0.2986
 3598SOL     OW10928   0.745   2.047   2.974 -0.7041  0.2411 -0.5024
 3598SOL    HW110929   0.667   1.992   2.981  1.1750 -2.4503  1.1832
 3598SOL    HW210930   0.784   2.023   2.890 -0.9166  0.5281 -0.6868
 3599SOL     OW10931   2.768   0.116   0.732 -0.4588  0.2253 -0.3279
 3599SOL    HW110932   2.833   0.173   0.772  0.3074 -1.0576  0.3264
 3599SOL    HW210933   2.813   0.078   0.656 -0.5263 -0.4349 -0.0467
 3600SOL     OW10934   3.280   2.454   4.072 -0.6262 -0.0040  0.2171
 3600SOL    HW110935   3.333   2.395   4.018  1.1829  1.0561  0.7765
 3600SOL    HW210936   3.328   2.462   4.154 -3.3249 -1.5806  2.1000
 3601SOL     OW10937   1.088   1.517   0.352 -0.3532 -0.3735 -0.5118
 3601SOL    HW110938   1.022   1.542   0.417  1.6401 -0.9653  1.8709
 3601SOL    HW210939   1.166   1.566   0.377  1.6134 -3.4943  0.0570
 3602SOL     OW10940   4.802   3.824   3.260  0.0692 -0.9889 -0.0234
 3602SOL    HW110941   4.888   3.843   3.297 -0.2103 -2.1335  1.2987
 3602SOL    HW210942   4.740   3.864   3.321 -0.3600 -0.5176 -0.7521
 3603SOL     OW10943   1.159   2.280   0.239 -0.4649  0.5743 -0.6932
 3603SOL    HW110944   1.209   2.254   0.163  0.9403  1.6656 -0.1900
 3603SOL    HW210945   1.092   2.340   0.205 -1.2737 -0.6412 -1.3219
 3604SOL     OW10946   3.292   2.694   0.574  0.1035  0.1453 -0.8987
 3604SOL    HW110947   3.378   2.671   0.610 -0.5547  0.8553  1.3399
 3604SOL    HW210948   3.279   2.633   0.502  1.9346 -0.8351 -0.4700
 3605SOL     OW10949   0.156   1.736   0.417 -0.1179 -0.3005  0.0892
 3605SOL    HW110950   0.071   1.778   0.402  0.9104  1.1075 -2.3905
 3605SOL    HW210951   0.145   1.647   0.383 -0.0767  0.5076 -2.1838
 3606SOL     OW10952   0.098   2.106   0.779 -0.2388  0.4386 -0.0944
 3606SOL    HW110953   0.064   2.126   0.691  1.0140  1.4599 -0.3638
 3606SOL    HW210954   0.035   2.043   0.814 -0.4508 -0.4667 -1.9542
 3607SOL     OW10955   2.241   1.135   1.909  0.3982  0.1175  0.1588
 3607SOL    HW110956   2.152   1.137   1.945  0.1306  1.1195 -0.5305
 3607SOL    HW210957   2.298   1.152   1.984 -0.1029  1.3240  0.2752
 3608SOL     OW10958   2.255   2.342   0.484  0.0580  0.4680 -0.2534
 3608SOL    HW110959   2.327   2.387   0.440  0.3615 -1.6472 -2.0988
 3608SOL    HW210960   2.226   2.404   0.552  3.6526  1.3749  0.6906
 3609SOL     OW10961   4.714   0.138   0.327 -0.1832 -0.8467 -0.0845
 3609SOL    HW110962   4.690   0.088   0.405  1.7765  0.4703  1.4428
 3609SOL    HW210963   4.780   0.200   0.357 -0.6221  0.9050 -2.4569
 3610SOL     OW10964   2.919   1.158   1.422  0.3257 -0.4604  0.0164
 3610SOL    HW110965   2.860   1.213   1.370  1.7787 -0.8793 -2.2072
 3610SOL    HW210966   2.878   1.071   1.419  1.7988 -1.2013 -3.1219
 3611SOL     OW10967   0.174   1.118   1.864  0.2482 -0.2709 -0.0053
 3611SOL    HW110968   0.100   1.154   1.914 -0.3017 -1.0539 -0.2422
 3611SOL    HW210969   0.231   1.080   1.931  0.6957  0.7701  0.2231
 3612SOL     OW10970   1.937   0.870   1.986  0.0784 -0.0240  0.4896
 3612SOL    HW110971   1.989   0.951   1.994  0.6701 -0.4262  0.7679
 3612SOL    HW210972   1.965   0.832   1.903 -0.5024  0.2614  0.1576
 3613SOL     OW10973   3.499   2.314   3.887  0.3468  0.6258  0.1987
 3613SOL    HW110974   3.585   2.299   3.927  0.0237  1.5881  1.2881
 3613SOL    HW210975   3.464   2.226   3.872  0.9392  0.2353  1.0306
 3614SOL     OW10976   3.642   1.966   1.718 -0.2745 -0.1051  0.1782
 3614SOL    HW110977   3.550   1.944   1.729 -0.8563  1.7144 -0.7570
 3614SOL    HW210978   3.672   1.910   1.646 -0.8091 -0.2399  0.0606
 3615SOL     OW10979  -0.001   4.465   3.380  0.9394 -0.1254 -0.1007
 3615SOL    HW110980   0.093   4.460   3.395  0.8369  0.3162  0.7440
 3615SOL    HW210981  -0.010   4.470   3.285  1.8515  1.3175 -0.1336
 3616SOL     OW10982   0.412   2.168   1.404  0.4042 -0.1774 -0.0459
 3616SOL    HW110983   0.491   2.194   1.451 -1.1053 -0.0505  2.6013
 3616SOL    HW210984   0.340   2.198   1.459 -1.5055 -1.8258 -1.4798
 3617SOL     OW10985   2.155   2.822   1.197  0.3414  0.0435 -0.0802
 3617SOL    HW110986   2.178   2.779   1.114  0.1294  1.5393 -0.9554
 3617SOL    HW210987   2.132   2.750   1.256  1.7294 -1.1375 -0.9222
 3618SOL     OW10988   1.784   5.006   3.207  0.0112  0.0910 -0.4373
 3618SOL    HW110989   1.777   5.012   3.302 -2.2875  0.8404 -0.5880
 3618SOL    HW210990   1.735   4.926   3.185  0.7813 -0.2402 -0.9969
 3619SOL     OW10991   0.184   3.314   0.095  0.2270  0.5895 -0.1332
 3619SOL    HW110992   0.125   3.389   0.098 -0.9090 -0.1538 -2.3440
 3619SOL    HW210993   0.127   3.239   0.078  1.6162 -0.4376 -0.4199
 3620SOL     OW10994   2.000   3.706   0.572 -0.2132 -0.0560 -0.1187
 3620SOL    HW110995   1.941   3.684   0.499  3.0277  1.7650 -3.6476
 3620SOL    HW210996   2.076   3.649   0.560  0.4380  0.3331  1.8605
 3621SOL     OW10997   2.588   1.691   4.667  0.0402 -0.0931  0.1093
 3621SOL    HW110998   2.622   1.608   4.632  1.9811  0.0912  1.4022
 3621SOL    HW210999   2.662   1.752   4.660 -0.4893  0.7769  1.6161
 3622SOL     OW11000   1.943   3.797   4.814  0.1380 -0.5698 -0.0260
 3622SOL    HW111001   2.009   3.864   4.799  0.7708 -1.2959 -0.5711
 3622SOL    HW211002   1.880   3.809   4.743  1.2485 -1.7269 -1.2713
 3623SOL     OW11003   1.415   4.478   3.726  0.4368  0.1916 -0.2762
 3623SOL    HW111004   1.405   4.534   3.803  1.4543 -0.7044  0.5491
 3623SOL    HW211005   1.357   4.516   3.660 -1.6673  0.0920  1.4139
 3624SOL     OW11006   3.852   2.645   3.376  0.4027  0.0442  0.2434
 3624SOL    HW111007   3.867   2.567   3.322 -1.8039  0.1003 -0.5382
 3624SOL    HW211008   3.884   2.717   3.323 -1.3366  0.0490 -0.8642
 3625SOL     OW11009   2.682   0.990   1.486  0.4766  0.1472 -0.3849
 3625SOL    HW111010   2.709   0.907   1.524  0.2308  0.6865  1.0173
 3625SOL    HW211011   2.631   0.965   1.409 -3.0568 -1.2454  2.1292
 3626SOL     OW11012   0.800   3.617   2.878  0.0572 -0.3486  0.2657
 3626SOL    HW111013   0.892   3.644   2.888  0.8073 -2.5761 -0.0246
 3626SOL    HW211014   0.804   3.542   2.819 -1.7799 -1.4335  1.4321
 3627SOL     OW11015   1.883   0.551   2.514 -0.2264  0.8998 -0.6470
 3627SOL    HW111016   1.791   0.572   2.499 -1.0441 -1.9350 -0.3054
 3627SOL    HW211017   1.892   0.461   2.482  1.3746 -0.3759  2.8953
 3628SOL     OW11018   4.247   4.179   4.053  0.3945 -0.2801  0.1496
 3628SOL    HW111019   4.199   4.102   4.020 -1.0294  1.3653 -1.8835
 3628SOL    HW211020   4.339   4.155   4.044  0.0080 -1.9696  0.2111
 3629SOL     OW11021   3.258   2.154   2.045 -0.6071 -0.2191 -0.6504
 3629SOL    HW111022   3.238   2.072   2.089 -0.6920  0.2217  0.1503
 3629SOL    HW211023   3.340   2.183   2.084 -1.4527  0.9330  0.3220
 3630SOL     OW11024   1.533   4.788   4.895 -0.0464 -0.1591 -0.5248
 3630SOL    HW111025   1.626   4.808   4.888 -0.3998  1.8201 -0.0961
 3630SOL    HW211026   1.511   4.746   4.811  0.7910  1.3001 -1.5193
 3631SOL     OW11027   4.507   3.907   0.862  0.7940  0.5353  0.0508
 3631SOL    HW111028   4.593   3.909   0.819  0.3038  1.2083 -0.9281
 3631SOL    HW211029   4.444   3.918   0.791 -0.1732 -1.0712  0.6259
 3632SOL     OW11030   3.645   4.853   1.696 -0.5373 -0.3709 -0.0481
 3632SOL    HW111031   3.723   4.809   1.729 -1.2931 -0.4960  1.6810
 3632SOL    HW211032   3.583   4.850   1.769 -2.2503 -0.4643 -1.4391
 3633SOL     OW11033   1.896   2.970   1.358 -0.1623  0.3951  0.7884
 3633SOL    HW111034   1.837   2.932   1.293  2.8184 -0.8832 -1.4384
 3633SOL    HW211035   1.884   3.064   1.350  0.9340  0.3995 -2.7121
 3634SOL     OW11036   1.165   2.600   1.456 -0.2459 -0.0907 -0.0083
 3634SOL    HW111037   1.137   2.549   1.532 -0.6601  1.1257  0.6711
 3634SOL    HW211038   1.221   2.540   1.407 -0.4415 -1.0871  0.9426
 3635SOL     OW11039   4.406   2.066   4.853 -0.2468  0.0158  0.6351
 3635SOL    HW111040   4.372   2.114   4.928 -1.8388 -0.4869  0.2675
 3635SOL    HW211041   4.328   2.035   4.807  0.7067 -0.2741 -0.8464
 3636SOL     OW11042   0.821   2.711   2.548 -0.4608  0.7665 -0.0733
 3636SOL    HW111043   0.868   2.637   2.587  0.6053  1.3725 -0.1656
 3636SOL    HW211044   0.741   2.673   2.513 -0.1129 -0.2772  0.2329
 3637SOL     OW11045   3.257   1.482   4.126 -0.4299  0.2372 -0.1871
 3637SOL    HW111046   3.259   1.503   4.033  0.1470  1.0182 -0.0133
 3637SOL    HW211047   3.287   1.391   4.132 -1.9573 -0.3437 -0.8793
 3638SOL     OW11048   3.685   1.556   2.696  0.0523  0.7982  0.5080
 3638SOL    HW111049   3.737   1.483   2.663 -0.7353  0.9883 -1.3052
 3638SOL    HW211050   3.738   1.634   2.680  1.3971  0.6186  3.5099
 3639SOL     OW11051   1.499   2.295   3.632 -0.7602 -0.4461  0.4676
 3639SOL    HW111052   1.496   2.372   3.576  2.1063 -0.6881 -0.1851
 3639SOL    HW211053   1.408   2.281   3.658 -1.7458  1.5731 -1.4960
 3640SOL     OW11054   1.312   0.560   1.919  0.0583 -0.7424  0.1887
 3640SOL    HW111055   1.407   0.554   1.908  0.1597  1.6826 -0.9143
 3640SOL    HW211056   1.298   0.544   2.012  1.6099 -0.6844  0.4696
 3641SOL     OW11057   4.043   3.047   3.400  0.2427 -0.3276  0.2326
 3641SOL    HW111058   3.951   3.073   3.390  1.0611  2.4543 -0.7776
 3641SOL    HW211059   4.063   3.066   3.491  0.1424  0.2443  0.1389
 3642SOL     OW11060   2.658   0.493   0.829 -0.3277  0.2537  0.0177
 3642SOL    HW111061   2.712   0.529   0.759 -1.5375  1.3980 -0.3757
 3642SOL    HW211062   2.679   0.549   0.905  0.7152 -0.7581  0.5085
 3643SOL     OW11063   4.730   3.531   3.845  0.0149  0.2819 -0.0780
 3643SOL    HW111064   4.667   3.596   3.877  1.6636  1.5559  0.7476
 3643SOL    HW211065   4.781   3.578   3.779 -0.9011 -1.2222 -1.9484
 3644SOL     OW11066   3.149   2.144   3.753 -0.4418 -0.4211 -0.0528
 3644SOL    HW111067   3.129   2.071   3.812  0.1150 -0.6416 -0.1368
 3644SOL    HW211068   3.063   2.184   3.735 -0.6386 -0.4892  0.7225
 3645SOL     OW11069   0.761   2.351   3.280 -0.1340 -0.0839 -0.4216
 3645SOL    HW111070   0.717   2.401   3.211 -1.2467  1.5187  1.3460
 3645SOL    HW211071   0.717   2.377   3.360  1.3845 -1.5732  0.9800
 3646SOL     OW11072   0.874   0.379   4.195  0.3328 -0.2950 -0.4684
 3646SOL    HW111073   0.952   0.324   4.189 -1.0832 -3.1082  3.0659
 3646SOL    HW211074   0.893   0.441   4.265 -0.4791 -0.9394  0.3561
 3647SOL     OW11075   3.731   0.470   2.047  0.7709 -0.7200 -0.0374
 3647SOL    HW111076   3.777   0.458   2.130 -1.2611 -0.6436  1.1330
 3647SOL    HW211077   3.639   0.481   2.070  0.0442 -1.2829 -2.3263
 3648SOL     OW11078   1.579   4.919   0.222 -0.3631 -0.1520  0.2410
 3648SOL    HW111079   1.494   4.917   0.178 -0.1625  0.9258 -0.2084
 3648SOL    HW211080   1.630   4.850   0.178 -1.0787 -1.0072  0.7135
 3649SOL     OW11081   1.805  -0.015   1.773  0.1112  0.2346 -0.0279
 3649SOL    HW111082   1.889  -0.033   1.731  0.4613  0.5188  0.5416
 3649SOL    HW211083   1.764   0.052   1.718 -0.0671 -0.4192 -0.7090
 3650SOL     OW11084   2.533   2.004   1.521  0.4519  0.0825 -0.2488
 3650SOL    HW111085   2.536   2.073   1.588 -0.5968 -0.6252  0.5489
 3650SOL    HW211086   2.505   2.049   1.442  0.4361  0.7018  0.1021
 3651SOL     OW11087   0.288   4.463   2.778 -0.0543  0.2610 -0.8218
 3651SOL    HW111088   0.331   4.412   2.709 -1.3359 -2.0911  0.0080
 3651SOL    HW211089   0.346   4.455   2.854  0.6354  1.6334 -1.1712
 3652SOL     OW11090   4.868   4.074   0.101 -0.2281 -0.0633  0.2142
 3652SOL    HW111091   4.857   4.129   0.023  0.4445 -0.8454 -0.4467
 3652SOL    HW211092   4.864   3.985   0.068 -0.3294 -0.4097  1.1406
 3653SOL     OW11093   3.016   3.987   4.618 -0.4792 -0.0264 -0.0721
 3653SOL    HW111094   2.960   4.047   4.569  0.4880  0.2767 -0.8491
 3653SOL    HW211095   2.970   3.903   4.615 -3.6745  1.2901  4.1025
 3654SOL     OW11096   1.434   2.486   1.595 -0.5083 -0.0595 -0.0476
 3654SOL    HW111097   1.380   2.430   1.540 -1.1308 -0.5000  0.9800
 3654SOL    HW211098   1.514   2.499   1.545 -1.0211 -0.5062 -1.0156
 3655SOL     OW11099   1.247   0.658   2.313 -0.1412 -0.5114  0.2913
 3655SOL    HW111100   1.334   0.617   2.320 -0.0086 -0.2950 -0.0703
 3655SOL    HW211101   1.198   0.599   2.255 -0.1312 -0.4614  0.2319
 3656SOL     OW11102   2.426   3.500   1.889 -0.0231 -0.3373 -0.6859
 3656SOL    HW111103   2.412   3.593   1.873  0.0069 -0.1957  0.0702
 3656SOL    HW211104   2.361   3.456   1.833 -1.2758  0.1950  0.2945
 3657SOL     OW11105   1.715   1.200   4.716 -0.2069  0.4656 -0.1050
 3657SOL    HW111106   1.637   1.173   4.765  0.1447  0.2749  0.3604
 3657SOL    HW211107   1.682   1.256   4.647 -0.5352  2.7230  1.7530
 3658SOL     OW11108   0.043   2.448   2.996  0.1617 -0.0718  0.5916
 3658SOL    HW111109   0.091   2.375   3.035  0.2160 -0.0466  0.5721
 3658SOL    HW211110   0.030   2.422   2.904  0.8272  0.2641  0.3949
 3659SOL     OW11111   1.880   3.785   2.308 -0.2169  0.1869 -0.0802
 3659SOL    HW111112   1.975   3.787   2.320  0.1093 -0.7697 -2.1311
 3659SOL    HW211113   1.859   3.693   2.297 -1.1719  0.5172 -1.1786
 3660SOL     OW11114   2.062   0.309   4.088  0.6520 -0.0407 -0.0350
 3660SOL    HW111115   2.128   0.378   4.097  0.5755 -0.1328  1.4646
 3660SOL    HW211116   2.004   0.323   4.163  0.4954 -1.5911  0.1476
 3661SOL     OW11117   1.950   2.282   2.639 -0.6001 -0.3447 -0.2352
 3661SOL    HW111118   1.888   2.353   2.622 -1.1422 -0.7010  0.2274
 3661SOL    HW211119   2.032   2.313   2.600 -1.2894 -0.2913 -1.7087
 3662SOL     OW11120   4.343   4.005   4.824  0.5226 -0.2884  0.3341
 3662SOL    HW111121   4.407   4.038   4.761  0.0066 -2.5789 -1.5325
 3662SOL    HW211122   4.330   4.077   4.886  0.7727  2.2437 -2.3817
 3663SOL     OW11123   2.298   0.968   1.593 -0.9031  0.1919  0.2265
 3663SOL    HW111124   2.364   0.953   1.661 -1.0684 -0.4797  0.2470
 3663SOL    HW211125   2.231   1.021   1.636 -0.5579  0.5689  0.3110
 3664SOL     OW11126   3.577   3.846   3.186 -0.6997 -0.9361  0.7651
 3664SOL    HW111127   3.570   3.751   3.196 -1.7717 -0.8859  0.5744
 3664SOL    HW211128   3.606   3.876   3.272  0.2093 -1.4810  0.6635
 3665SOL     OW11129   3.266   2.365   2.960 -0.4078 -0.3224  0.7977
 3665SOL    HW111130   3.192   2.375   3.020 -1.0110 -1.7010  0.3347
 3665SOL    HW211131   3.226   2.337   2.877  0.5703 -0.3973  0.3365
 3666SOL     OW11132   3.137   2.949   1.337  0.2857  0.8028  0.5823
 3666SOL    HW111133   3.161   2.867   1.294  0.0546 -0.2025  2.2752
 3666SOL    HW211134   3.062   2.981   1.288  0.9130  0.4887 -0.6441
 3667SOL     OW11135   4.668   0.761   4.158 -0.8559  0.0580 -0.7540
 3667SOL    HW111136   4.687   0.761   4.064  1.1309 -0.5393 -0.4061
 3667SOL    HW211137   4.716   0.837   4.191  0.5569 -1.1571  0.1025
 3668SOL     OW11138   4.398   1.274   2.016 -0.3420 -0.0279 -0.0108
 3668SOL    HW111139   4.394   1.363   1.981 -1.1839  0.3906  1.0817
 3668SOL    HW211140   4.306   1.249   2.029 -0.3251 -2.2356 -3.0869
 3669SOL     OW11141   0.919   2.821   3.298 -0.3691 -0.3100  0.4352
 3669SOL    HW111142   0.895   2.759   3.367 -1.7692  0.8962  1.0993
 3669SOL    HW211143   0.858   2.803   3.227 -0.7799  0.2781  0.6290
 3670SOL     OW11144   1.982   4.862   1.588  0.2891  0.3585  0.1618
 3670SOL    HW111145   2.054   4.815   1.629 -0.9847 -2.1138 -0.1693
 3670SOL    HW211146   1.993   4.845   1.494 -0.5094  0.2350  0.0791
 3671SOL     OW11147   1.861   2.328   1.488 -0.4792 -0.5708 -0.0772
 3671SOL    HW111148   1.918   2.304   1.415 -0.0078  2.1586 -0.7326
 3671SOL    HW211149   1.915   2.314   1.566  0.1274 -0.5606 -0.4921
 3672SOL     OW11150   2.853   0.532   0.324  1.4178  0.3859  0.8855
 3672SOL    HW111151   2.925   0.513   0.264  0.5636  0.8758 -0.3498
 3672SOL    HW211152   2.798   0.454   0.322 -1.2387  2.0090 -2.9461
 3673SOL     OW11153   0.978   3.600   0.306  0.0878 -0.3897  0.5344
 3673SOL    HW111154   0.911   3.552   0.258  0.2800  0.2053 -0.3458
 3673SOL    HW211155   1.054   3.600   0.248  0.1580  0.7821  0.5992
 3674SOL     OW11156   3.913   1.709   3.917  0.6004  0.1396 -0.2731
 3674SOL    HW111157   3.994   1.682   3.874  0.9050 -1.2524  1.1107
 3674SOL    HW211158   3.941   1.769   3.986  0.5210 -0.6098  0.4305
 3675SOL     OW11159   3.570   3.829   4.811 -0.6118 -1.0373 -0.1890
 3675SOL    HW111160   3.493   3.819   4.868 -0.8774 -2.3928 -0.7627
 3675SOL    HW211161   3.629   3.760   4.839  0.7530  0.4216  0.7274
 3676SOL     OW11162   0.265   1.865   2.567  0.1593 -0.7411  0.4045
 3676SOL    HW111163   0.338   1.904   2.615 -1.5210  2.4647  0.5973
 3676SOL    HW211164   0.226   1.803   2.628  2.1229 -1.8664  0.5965
 3677SOL     OW11165   4.596   4.843   3.074 -0.7303  0.5425 -0.4312
 3677SOL    HW111166   4.563   4.926   3.039  0.6023  1.8278  1.2062
 3677SOL    HW211167   4.585   4.781   3.002  0.1569  2.6107 -2.4946
 3678SOL     OW11168   4.615   2.766   2.844 -0.7039  0.7607  0.3261
 3678SOL    HW111169   4.691   2.712   2.864  0.3143  2.0305  0.0273
 3678SOL    HW211170   4.650   2.840   2.794 -2.4605  0.0958 -2.1422
 3679SOL     OW11171   0.531   0.538   1.799  0.1886  0.8785  0.3414
 3679SOL    HW111172   0.484   0.567   1.720 -2.1956 -1.4208  0.7460
 3679SOL    HW211173   0.490   0.587   1.870 -0.9727 -0.3720  0.5800
 3680SOL     OW11174   0.153   0.699   0.461  0.3902  0.4159  0.0916
 3680SOL    HW111175   0.075   0.753   0.469  0.4779  0.8566 -1.6505
 3680SOL    HW211176   0.171   0.669   0.550 -2.2886 -0.4675  0.4280
 3681SOL     OW11177   4.043   0.756   4.019  0.7656 -0.2383 -0.1380
 3681SOL    HW111178   4.007   0.800   3.942  2.1729  0.8210 -0.2294
 3681SOL    HW211179   3.970   0.752   4.081 -0.4967 -1.4297 -1.6194
 3682SOL     OW11180   4.641   4.518   4.281 -0.2605 -0.1417 -0.4767
 3682SOL    HW111181   4.671   4.445   4.227  2.2918 -0.1822  0.8722
 3682SOL    HW211182   4.547   4.502   4.291  0.1706 -3.2900 -0.2305
 3683SOL     OW11183   2.144   3.130   2.553 -0.2171  0.3459 -0.1802
 3683SOL    HW111184   2.087   3.077   2.497 -3.9143 -0.3371  3.7676
 3683SOL    HW211185   2.109   3.219   2.546  1.5510  1.0135 -1.4432
 3684SOL     OW11186   4.756   2.234   2.888 -0.6168 -0.3216 -0.1743
 3684SOL    HW111187   4.823   2.292   2.851 -0.9629 -0.6141 -1.3135
 3684SOL    HW211188   4.800   2.190   2.960  0.0490  0.3903 -0.1305
 3685SOL     OW11189   3.788   0.164   2.774 -0.2876 -0.0046  0.2226
 3685SOL    HW111190   3.883   0.173   2.785 -0.4260  1.0008  0.6853
 3685SOL    HW211191   3.770   0.074   2.803  0.0501  0.9393  3.9788
 3686SOL     OW11192   2.128   2.537   3.469 -0.5016  0.2270  0.4242
 3686SOL    HW111193   2.089   2.534   3.381  1.4163 -2.9588 -0.4659
 3686SOL    HW211194   2.084   2.466   3.517  0.3434  0.1840  1.1549
 3687SOL     OW11195   0.205   0.233   4.197  0.1929  0.2226  0.2346
 3687SOL    HW111196   0.207   0.144   4.161  0.3237  0.1208  0.4930
 3687SOL    HW211197   0.233   0.223   4.287  1.3918  0.6971 -0.0678
 3688SOL     OW11198   2.104   0.734   2.729 -0.0013 -0.0140  0.3765
 3688SOL    HW111199   2.133   0.718   2.639 -0.3373 -0.9785  0.4240
 3688SOL    HW211200   2.030   0.674   2.741 -0.8297  1.0686  0.8593
 3689SOL     OW11201   0.572   0.495   3.531  0.1168  0.2127  0.5180
 3689SOL    HW111202   0.597   0.502   3.439  1.7532  0.9439  0.9677
 3689SOL    HW211203   0.486   0.537   3.536 -0.3312 -0.4916 -0.7797
 3690SOL     OW11204   0.003   2.629   0.828  0.0597 -0.1748 -0.7060
 3690SOL    HW111205   0.053   2.573   0.887  1.8023  0.8987 -1.0998
 3690SOL    HW211206   0.001   2.581   0.745  1.2818  0.1841 -0.9571
 3691SOL     OW11207   0.269   4.920   3.550  0.4629  0.2133 -0.0091
 3691SOL    HW111208   0.341   4.914   3.613 -0.0105  0.6680  0.5817
 3691SOL    HW211209   0.291   4.998   3.498  1.2842 -0.6219 -0.9821
 3692SOL     OW11210   1.483   3.138   3.210 -0.0802 -0.0817 -0.3572
 3692SOL    HW111211   1.560   3.167   3.161  0.6827 -0.5808  0.5273
 3692SOL    HW211212   1.512   3.135   3.301 -0.7203 -1.6711 -0.1778
 3693SOL     OW11213   2.684   2.400   1.967 -0.5495  0.0552  0.0776
 3693SOL    HW111214   2.654   2.313   1.941 -2.3530  0.5780  0.3115
 3693SOL    HW211215   2.750   2.423   1.901 -1.2970 -0.7718 -0.9907
 3694SOL     OW11216   4.186   2.566   1.234 -0.0562  0.1475  0.0903
 3694SOL    HW111217   4.262   2.565   1.177  0.0689  1.0558  0.2281
 3694SOL    HW211218   4.174   2.658   1.256  0.6440 -0.2703  2.5211
 3695SOL     OW11219   3.550   1.511   1.156  0.1301  0.4585 -0.4092
 3695SOL    HW111220   3.613   1.543   1.092  1.1085 -1.3526 -0.4191
 3695SOL    HW211221   3.514   1.432   1.116 -0.0234 -0.1084  0.8258
 3696SOL     OW11222   2.908   3.355   0.620  0.6446  0.3715  0.1528
 3696SOL    HW111223   2.996   3.318   0.610  1.3506  1.7047  1.0041
 3696SOL    HW211224   2.869   3.348   0.533  0.4061 -2.9706  0.3874
 3697SOL     OW11225   0.852   4.526   1.730 -0.1177  0.2580 -0.7207
 3697SOL    HW111226   0.937   4.501   1.694  0.7843  0.3440  1.2048
 3697SOL    HW211227   0.835   4.613   1.695  0.0233 -0.2276 -2.0286
 3698SOL     OW11228   3.842   1.667   4.829 -0.2717 -0.1777  0.0510
 3698SOL    HW111229   3.818   1.585   4.786  1.0747 -0.6802  0.2023
 3698SOL    HW211230   3.893   1.640   4.905 -1.2738  0.7614  1.0924
 3699SOL     OW11231   0.642   1.815   2.381 -0.1670  0.7189 -0.1075
 3699SOL    HW111232   0.547   1.824   2.392 -0.0935 -0.0523  1.4314
 3699SOL    HW211233   0.654   1.727   2.346 -0.0233  0.8342 -0.3476
 3700SOL     OW11234   0.067   3.826   0.507 -0.2183  0.2919 -0.4519
 3700SOL    HW111235   0.062   3.733   0.528 -3.1465  0.5960  0.6898
 3700SOL    HW211236   0.099   3.829   0.417  0.2194 -1.7698 -0.4063
 3701SOL     OW11237   1.926   0.937   1.693  0.2292 -0.3429 -0.3926
 3701SOL    HW111238   1.951   1.028   1.707 -2.4199  0.5069 -0.6340
 3701SOL    HW211239   1.939   0.923   1.599 -0.3966  0.1728 -0.5659
 3702SOL     OW11240   0.738   2.544   0.919 -0.5307 -0.9714  0.1489
 3702SOL    HW111241   0.679   2.478   0.885 -1.7866  0.2861 -0.1939
 3702SOL    HW211242   0.693   2.627   0.904  1.7411  0.1418 -1.0251
 3703SOL     OW11243   0.358   2.503   4.159 -0.2227  0.2598  0.1950
 3703SOL    HW111244   0.440   2.483   4.206 -0.2456 -1.1377 -0.3193
 3703SOL    HW211245   0.313   2.565   4.216  1.0570  0.8162  0.6425
 3704SOL     OW11246   0.115   3.361   0.720  0.4037 -0.2305 -0.1007
 3704SOL    HW111247   0.095   3.269   0.705 -0.5082  0.3917 -3.3674
 3704SOL    HW211248   0.211   3.366   0.713  0.4529 -0.8999  0.0123
 3705SOL     OW11249   1.299   4.623   1.840 -0.1209 -0.4834 -0.7875
 3705SOL    HW111250   1.323   4.715   1.855 -1.9295 -0.1559  0.2887
 3705SOL    HW211251   1.282   4.588   1.927  1.2070 -2.0701 -1.1297
 3706SOL     OW11252   3.927   2.982   4.977  0.3679  0.3852 -0.1658
 3706SOL    HW111253   3.919   2.894   5.014 -1.6519  0.1324 -1.0497
 3706SOL    HW211254   3.843   3.024   4.996  1.2795  2.1184  0.1915
 3707SOL     OW11255   0.004   3.508   0.938  0.0237  0.1879  0.6838
 3707SOL    HW111256   0.048   3.452   0.874 -0.7109  0.8294 -0.4150
 3707SOL    HW211257   0.049   3.592   0.930 -0.1689  0.3121  0.9072
 3708SOL     OW11258   3.910   2.998   2.596 -0.7768  0.2714 -0.0997
 3708SOL    HW111259   3.874   2.922   2.640 -1.4201  0.9992  0.6714
 3708SOL    HW211260   3.924   2.969   2.506 -1.2256 -0.6845  0.1231
 3709SOL     OW11261   1.421   0.163   0.252 -0.1342  0.0842 -0.6075
 3709SOL    HW111262   1.332   0.190   0.229  0.2245  0.8603 -1.1310
 3709SOL    HW211263   1.426   0.176   0.347  1.2357  6.0251 -1.0708
 3710SOL     OW11264   1.502   2.265   2.231  0.5333 -0.2957 -0.3018
 3710SOL    HW111265   1.420   2.219   2.213  0.8007  0.0318 -2.7575
 3710SOL    HW211266   1.495   2.346   2.180  1.7007  0.5257  0.8058
 3711SOL     OW11267   0.013   3.145   0.547  0.4375  0.1464 -0.5795
 3711SOL    HW111268   0.023   3.209   0.478 -0.7687  1.6502  0.5704
 3711SOL    HW211269  -0.025   3.068   0.504  1.1391  0.4873 -1.8328
 3712SOL     OW11270   3.907   1.310   3.434  0.8348 -0.9204 -0.0094
 3712SOL    HW111271   3.863   1.393   3.451  0.6623 -1.3520  1.9851
 3712SOL    HW211272   3.840   1.253   3.397  0.6940 -0.4701 -0.4470
 3713SOL     OW11273   4.895   4.935   0.795  0.2608  0.4465  0.1123
 3713SOL    HW111274   4.800   4.920   0.786  0.3957  0.0387 -0.7464
 3713SOL    HW211275   4.923   4.868   0.858 -0.1880  1.2552  1.1935
 3714SOL     OW11276   4.906   2.099   3.080 -0.0851 -0.7446 -0.2963
 3714SOL    HW111277   4.951   2.077   3.161  0.7585  1.1569 -0.1801
 3714SOL    HW211278   4.970   2.080   3.011  0.2883  0.3344 -0.2657
 3715SOL     OW11279   0.316   2.435   4.689  0.5917  0.1488  0.5082
 3715SOL    HW111280   0.280   2.379   4.758  0.7168 -0.7626 -0.1416
 3715SOL    HW211281   0.322   2.377   4.613 -2.1117  1.7637 -1.1102
 3716SOL     OW11282   4.073   2.012   2.790  0.3297 -0.4140  0.1253
 3716SOL    HW111283   4.089   2.046   2.879 -1.9201  0.5550  0.2218
 3716SOL    HW211284   4.058   1.919   2.802 -1.2228 -0.0823  0.9791
 3717SOL     OW11285   3.993   4.396   3.487 -0.0877 -0.2703  0.5643
 3717SOL    HW111286   3.979   4.379   3.580 -2.2279 -0.1524  0.2990
 3717SOL    HW211287   3.997   4.492   3.481 -0.5983 -0.2572  0.4485
 3718SOL     OW11288   0.525   3.414   0.233 -0.1834 -0.1630  0.1865
 3718SOL    HW111289   0.476   3.479   0.284 -1.2290  0.4866 -1.5443
 3718SOL    HW211290   0.501   3.330   0.271 -0.9623  0.2949  0.7417
 3719SOL     OW11291   0.275   1.427   4.206  0.1268  0.0491 -0.1094
 3719SOL    HW111292   0.349   1.369   4.223  0.2111  0.1926  0.0089
 3719SOL    HW211293   0.218   1.376   4.148  0.7125  0.2652 -0.8679
 3720SOL     OW11294   1.082   0.671   1.777  0.2583 -0.4748  0.0845
 3720SOL    HW111295   1.169   0.658   1.814  0.0937  0.6817  0.9388
 3720SOL    HW211296   1.098   0.707   1.690  0.6367  0.3916  0.5074
 3721SOL     OW11297   2.943   0.203   4.442  0.7702  0.0448  0.0171
 3721SOL    HW111298   2.850   0.200   4.419  0.6919 -1.5007  0.4446
 3721SOL    HW211299   2.976   0.280   4.396 -0.7633  0.7731  0.0555
 3722SOL     OW11300   2.591   2.997   5.026  0.0547 -0.6351 -0.5319
 3722SOL    HW111301   2.663   2.948   4.986  0.0513  0.2655 -1.7032
 3722SOL    HW211302   2.512   2.960   4.988 -0.1191 -1.5838  0.7112
 3723SOL     OW11303   0.381   0.530   2.044 -0.2313 -0.2211  0.3420
 3723SOL    HW111304   0.289   0.545   2.023 -0.3296 -0.3293  0.6892
 3723SOL    HW211305   0.380   0.480   2.125  0.1437  0.5517  0.8344
 3724SOL     OW11306   4.916   1.840   0.381  0.0922  0.5829  0.8859
 3724SOL    HW111307   4.873   1.859   0.297  1.6137  3.4468  0.6269
 3724SOL    HW211308   4.855   1.783   0.427 -4.5220  4.7669  0.8489
 3725SOL     OW11309   2.991   2.018   0.189 -0.5760 -0.2796 -0.3443
 3725SOL    HW111310   3.001   1.925   0.169  0.8093  0.1031 -1.5378
 3725SOL    HW211311   2.955   2.056   0.109 -2.4047  0.0497  0.5649
 3726SOL     OW11312   3.624   3.164   1.614 -0.8147 -0.7447 -0.1998
 3726SOL    HW111313   3.593   3.099   1.676 -1.9079 -1.7521 -1.7258
 3726SOL    HW211314   3.672   3.113   1.548  1.5669  0.4341  0.4758
 3727SOL     OW11315   3.797   1.180   1.217  0.0416  0.0516  0.0385
 3727SOL    HW111316   3.747   1.238   1.275  0.7790  0.6626  0.0850
 3727SOL    HW211317   3.771   1.208   1.129 -0.4707 -0.3312  0.0650
 3728SOL     OW11318   4.137   2.211   4.541 -0.1103 -0.1319 -0.1989
 3728SOL    HW111319   4.048   2.238   4.564 -1.0422 -0.5987 -2.8616
 3728SOL    HW211320   4.163   2.152   4.611 -2.1759 -0.4947  0.3238
 3729SOL     OW11321   2.789   3.197   4.176 -0.3991 -0.0743  0.8246
 3729SOL    HW111322   2.864   3.138   4.169  0.5076  0.7567  2.7213
 3729SOL    HW211323   2.726   3.164   4.112  0.6686 -2.1662  0.7694
 3730SOL     OW11324   1.332   4.515   1.482  0.3933 -0.1989 -0.3499
 3730SOL    HW111325   1.408   4.509   1.539 -0.7214 -0.3769  1.1881
 3730SOL    HW211326   1.322   4.427   1.445  0.6620 -0.3080 -0.1638
 3731SOL     OW11327   1.317   3.631   3.754 -0.6514  0.1801 -0.5348
 3731SOL    HW111328   1.320   3.713   3.803  0.1164 -0.6713  0.8768
 3731SOL    HW211329   1.407   3.619   3.722 -1.1359  0.7294 -2.2250
 3732SOL     OW11330   4.858   2.474   3.262  0.6189  0.2642 -0.2143
 3732SOL    HW111331   4.819   2.392   3.231 -1.3805  1.8396 -2.2015
 3732SOL    HW211332   4.942   2.479   3.216 -0.0025  0.0796 -1.4319
 3733SOL     OW11333   2.326   3.742   3.336 -0.3836  0.4601 -0.8867
 3733SOL    HW111334   2.264   3.670   3.345  0.8658 -0.6657 -1.0205
 3733SOL    HW211335   2.343   3.770   3.426 -1.7073  1.3651 -0.8860
 3734SOL     OW11336   1.049   2.806   4.860  0.4906 -0.2546  0.2083
 3734SOL    HW111337   0.966   2.761   4.844  0.6431 -1.6603  2.8527
 3734SOL    HW211338   1.081   2.768   4.942  2.5891  1.9690  0.5062
 3735SOL     OW11339   1.285   3.812   0.376 -0.0580  1.4693  0.0037
 3735SOL    HW111340   1.262   3.801   0.284 -1.5251  1.1390  0.3726
 3735SOL    HW211341   1.284   3.907   0.390  4.1003  1.8622 -1.1812
 3736SOL     OW11342   0.077   3.689   2.470 -0.3088 -0.2807  0.8347
 3736SOL    HW111343   0.133   3.699   2.547  0.3638 -1.1586  0.4806
 3736SOL    HW211344   0.095   3.765   2.416  1.9024 -1.3751 -0.0928
 3737SOL     OW11345   0.866   2.594   3.483  0.2860  0.4518  0.2404
 3737SOL    HW111346   0.788   2.563   3.528  0.6857 -0.2855  0.4552
 3737SOL    HW211347   0.936   2.536   3.515  0.5904 -0.0553 -1.2844
 3738SOL     OW11348   4.932   2.380   0.612 -0.4451  0.7743  0.1248
 3738SOL    HW111349   4.979   2.452   0.570 -1.9683 -0.3296 -3.8818
 3738SOL    HW211350   4.840   2.402   0.603 -0.9103 -1.0109  0.1118
 3739SOL     OW11351   4.181   0.610   2.162 -0.1413 -0.0556  0.2324
 3739SOL    HW111352   4.135   0.691   2.181  0.1748  0.0878  0.3826
 3739SOL    HW211353   4.220   0.624   2.076 -0.6529 -0.3020 -0.0494
 3740SOL     OW11354   4.754   4.535   4.585  0.5275 -0.3214  0.0507
 3740SOL    HW111355   4.730   4.507   4.497  1.4993 -0.7013 -0.0979
 3740SOL    HW211356   4.696   4.609   4.603  0.7555  0.1706 -1.1601
 3741SOL     OW11357   0.855   2.871   2.828  0.3430 -0.2912  0.0413
 3741SOL    HW111358   0.879   2.913   2.746  2.5138 -1.5609 -0.0517
 3741SOL    HW211359   0.774   2.914   2.855  0.9925  1.9735 -1.4134
 3742SOL     OW11360   0.573   2.108   3.393  0.2531  0.0407 -0.8122
 3742SOL    HW111361   0.518   2.178   3.428  1.1305  1.8481 -2.8204
 3742SOL    HW211362   0.652   2.109   3.446  0.3370  0.7213 -0.9451
 3743SOL     OW11363   1.529   1.568   3.638  0.4741 -0.0924  0.2546
 3743SOL    HW111364   1.537   1.613   3.722  1.5608  0.1315  0.0533
 3743SOL    HW211365   1.515   1.638   3.574 -1.2412 -0.3284  0.3354
 3744SOL     OW11366   3.081   3.011   3.345  0.0817 -0.4577 -0.3129
 3744SOL    HW111367   3.135   3.085   3.317 -0.4298  0.3262  0.7108
 3744SOL    HW211368   3.007   3.010   3.284  0.6651 -0.8429 -1.0287
 3745SOL     OW11369   3.929   2.137   1.894  0.7063 -0.1356  0.7010
 3745SOL    HW111370   3.943   2.052   1.934 -3.6326 -1.6341 -0.3897
 3745SOL    HW211371   3.946   2.123   1.800  0.3431  0.2749  0.5673
 3746SOL     OW11372   3.057   0.945   2.945 -0.1213 -0.8807 -0.2002
 3746SOL    HW111373   2.990   0.920   2.881 -0.2221 -1.5254  0.1499
 3746SOL    HW211374   3.032   0.898   3.025 -0.4303  0.4916  0.5436
 3747SOL     OW11375   0.093   4.815   2.847 -0.1747  0.3737 -0.1785
 3747SOL    HW111376   0.069   4.733   2.804 -0.0629 -0.0392  0.5279
 3747SOL    HW211377   0.142   4.787   2.925  1.6054  1.1472 -0.9643
 3748SOL     OW11378   2.782   3.546   4.015 -0.1365 -0.7492  0.3005
 3748SOL    HW111379   2.736   3.564   3.934 -1.8495  0.1968  1.4235
 3748SOL    HW211380   2.765   3.623   4.070  2.0350 -0.7782  1.1242
 3749SOL     OW11381   0.955   3.972   4.477 -0.3491  0.1224 -0.3408
 3749SOL    HW111382   0.865   3.990   4.451 -0.2297  0.0532 -0.8150
 3749SOL    HW211383   1.000   4.056   4.465  0.1550 -0.3746 -2.3282
 3750SOL     OW11384   1.772   0.431   0.823 -0.5670  0.4857 -0.4364
 3750SOL    HW111385   1.816   0.346   0.815 -1.4307 -0.2816  2.0818
 3750SOL    HW211386   1.843   0.495   0.814  0.6103 -0.6251  0.4989
 3751SOL     OW11387   0.375   3.209   2.808 -0.1664  0.3559  0.2902
 3751SOL    HW111388   0.345   3.283   2.861  0.2616  0.2678  0.6582
 3751SOL    HW211389   0.323   3.135   2.840  1.1869 -0.0349  1.7100
 3752SOL     OW11390   1.537   4.511   1.687  0.4382  0.0766 -0.0666
 3752SOL    HW111391   1.457   4.554   1.717  0.6835  1.1296 -0.8675
 3752SOL    HW211392   1.517   4.417   1.695 -0.2681  0.3118  1.2699
 3753SOL     OW11393   3.247   3.409   2.614 -0.2142 -0.1657  0.6399
 3753SOL    HW111394   3.306   3.465   2.665 -0.3391  0.0662  0.5351
 3753SOL    HW211395   3.288   3.403   2.527  1.0751 -2.2458  1.3205
 3754SOL     OW11396   4.164   0.250   1.401 -0.7154 -0.9403  0.0172
 3754SOL    HW111397   4.166   0.186   1.472 -0.9474 -1.3534 -0.3418
 3754SOL    HW211398   4.228   0.217   1.337 -0.7969 -0.7876 -0.1453
 3755SOL     OW11399   4.752   2.113   4.653  0.9019  0.5682 -0.3847
 3755SOL    HW111400   4.676   2.079   4.604  0.7882  1.1966 -0.6545
 3755SOL    HW211401   4.732   2.094   4.744  1.1991 -0.7850 -0.5830
 3756SOL     OW11402   1.845   3.958   1.080 -0.3726 -0.0610  0.3656
 3756SOL    HW111403   1.897   3.883   1.110 -1.5919 -0.8256  0.6686
 3756SOL    HW211404   1.807   3.928   0.997 -0.9641  0.1739  0.5515
 3757SOL     OW11405   3.192   3.085   1.716 -0.4356  0.1097  0.0271
 3757SOL    HW111406   3.222   3.176   1.718 -1.6983  0.5317  1.4671
 3757SOL    HW211407   3.240   3.046   1.643 -0.0198  1.9752 -0.7631
 3758SOL     OW11408   4.825   4.091   2.768 -0.3967  0.5342 -0.3390
 3758SOL    HW111409   4.755   4.028   2.750  0.8521 -1.2170  0.5509
 3758SOL    HW211410   4.829   4.095   2.864 -0.1054  1.5826 -0.3881
 3759SOL     OW11411   0.641   0.417   1.346 -0.1863 -0.0712  0.0633
 3759SOL    HW111412   0.699   0.428   1.422 -0.6425  0.7853  0.2927
 3759SOL    HW211413   0.700   0.423   1.271  0.0254  0.9557  0.2912
 3760SOL     OW11414   1.098   1.592   3.111 -0.0894 -0.1001 -0.1015
 3760SOL    HW111415   1.157   1.518   3.129  0.1871  0.2619  0.5089
 3760SOL    HW211416   1.011   1.554   3.116  0.0567 -0.4322 -0.0031
 3761SOL     OW11417   0.786   0.298   3.010  0.0750 -0.3713  0.2438
 3761SOL    HW111418   0.841   0.265   2.938 -1.0906 -0.8333 -0.4519
 3761SOL    HW211419   0.696   0.283   2.981 -0.4333 -1.2961  2.1290
 3762SOL     OW11420   0.697   4.568   0.201  0.1235  0.6966 -0.3204
 3762SOL    HW111421   0.603   4.580   0.215  0.5153  1.5864  2.0019
 3762SOL    HW211422   0.714   4.477   0.226 -0.1032  0.5414 -0.7202
 3763SOL     OW11423   4.656   3.463   3.036  0.0708 -0.1077 -0.1763
 3763SOL    HW111424   4.645   3.511   2.954  1.2905  0.5959  0.0370
 3763SOL    HW211425   4.722   3.396   3.017 -2.3454 -2.4947 -0.7534
 3764SOL     OW11426   3.115   1.312   1.002 -0.1700 -0.1370  0.8237
 3764SOL    HW111427   3.063   1.384   1.039 -1.1062 -0.0213 -0.6285
 3764SOL    HW211428   3.150   1.348   0.921  0.8996 -0.7426  1.0049
 3765SOL     OW11429   3.322   0.920   1.254  0.1581  0.3351 -0.4479
 3765SOL    HW111430   3.287   0.845   1.206 -3.4115  1.0258  0.7218
 3765SOL    HW211431   3.361   0.976   1.187 -2.2950  0.0360 -2.2639
 3766SOL     OW11432   1.049   0.278   0.266  0.0603  0.3377  0.3367
 3766SOL    HW111433   0.963   0.291   0.307  0.4940 -0.3293  1.5355
 3766SOL    HW211434   1.095   0.220   0.327  0.6040 -1.0723 -1.3288
 3767SOL     OW11435   1.581   2.961   2.869 -0.1327 -0.0792 -0.3152
 3767SOL    HW111436   1.586   2.867   2.888  0.1675  0.2338  1.2756
 3767SOL    HW211437   1.531   2.966   2.787 -1.1569 -1.5635  0.1825
 3768SOL     OW11438   4.372   1.401   3.301 -0.5329 -0.1111 -0.1391
 3768SOL    HW111439   4.318   1.332   3.338 -1.0922 -0.9803 -2.4078
 3768SOL    HW211440   4.327   1.482   3.323 -1.5240 -0.6813 -0.0129
 3769SOL     OW11441   1.213   3.931   4.531 -0.2034 -0.2962  0.4355
 3769SOL    HW111442   1.213   4.002   4.467  2.3348 -0.1499  0.4888
 3769SOL    HW211443   1.132   3.883   4.514 -0.5125  0.8362 -1.6056
 3770SOL     OW11444   0.555   4.497   2.185 -0.1185 -0.0269 -0.5016
 3770SOL    HW111445   0.531   4.539   2.267 -2.1019 -0.0240 -1.0288
 3770SOL    HW211446   0.637   4.451   2.204 -1.4995 -1.6529  2.0386
 3771SOL     OW11447   2.148   0.386   2.485 -0.0997  0.0387  0.1451
 3771SOL    HW111448   2.188   0.393   2.399  3.1631 -0.1786  1.5022
 3771SOL    HW211449   2.124   0.293   2.492  1.9278 -0.5084  0.3382
 3772SOL     OW11450   3.242   0.504   1.317 -1.4435  0.4008 -0.8291
 3772SOL    HW111451   3.278   0.505   1.405 -1.8102  0.1474 -0.6762
 3772SOL    HW211452   3.156   0.463   1.326 -1.5179  0.4480 -1.2889
 3773SOL     OW11453   2.622   2.300   2.699 -0.3161  0.3151 -0.2343
 3773SOL    HW111454   2.596   2.217   2.739 -0.9559  1.0342  0.8897
 3773SOL    HW211455   2.654   2.353   2.771  2.4377  0.2188 -1.2872
 3774SOL     OW11456   0.956   4.296   1.296 -0.0473  0.0448  0.2912
 3774SOL    HW111457   1.005   4.376   1.280  1.0372 -0.1215  2.3766
 3774SOL    HW211458   0.920   4.272   1.211  0.8016  1.9492 -0.6620
 3775SOL     OW11459   2.461   1.533   4.294  1.2798 -0.1693 -0.2947
 3775SOL    HW111460   2.492   1.464   4.352  1.2879  0.8268  0.9480
 3775SOL    HW211461   2.374   1.506   4.267  0.9269 -0.2711  0.8924
 3776SOL     OW11462   4.488   0.156   4.985  0.0330  0.3026  0.0172
 3776SOL    HW111463   4.414   0.133   4.929  0.0274  1.3145 -0.4242
 3776SOL    HW211464   4.473   0.108   5.067  0.2128 -1.4551 -0.9441
 3777SOL     OW11465   2.984   2.183   4.577  0.1331 -0.1703 -0.3451
 3777SOL    HW111466   3.041   2.110   4.552  0.1893  0.5205 -2.4606
 3777SOL    HW211467   3.038   2.261   4.563 -1.0864  0.4617 -1.8313
 3778SOL     OW11468   2.287   2.361   4.091 -0.0564 -0.0128  0.2261
 3778SOL    HW111469   2.248   2.274   4.092 -0.9610  0.3763  1.6731
 3778SOL    HW211470   2.373   2.349   4.133 -0.1408 -0.2192  0.3378
 3779SOL     OW11471   4.959   1.893   3.663  0.2388  0.4433 -0.0424
 3779SOL    HW111472   5.002   1.832   3.602 -0.1502 -0.8404  0.9225
 3779SOL    HW211473   4.867   1.867   3.662  0.1794  0.5831  0.8728
 3780SOL     OW11474   4.253   0.242   2.970  0.1220 -0.7488  0.3808
 3780SOL    HW111475   4.231   0.152   2.996  2.1952 -0.9240  1.8500
 3780SOL    HW211476   4.236   0.294   3.048 -0.3901  0.0215 -0.2388
 3781SOL     OW11477   0.638   0.613   4.344 -0.4601 -0.7000  0.3139
 3781SOL    HW111478   0.730   0.606   4.368  0.1693 -1.1564 -1.9947
 3781SOL    HW211479   0.606   0.689   4.393  1.3222 -0.1002  0.6077
 3782SOL     OW11480   2.774   3.858   4.635 -0.2803 -0.0670  0.9016
 3782SOL    HW111481   2.697   3.899   4.673  0.8221  1.7168  1.3242
 3782SOL    HW211482   2.739   3.784   4.584 -2.4872  1.9397 -0.7296
 3783SOL     OW11483   4.439   1.813   2.080 -0.3376  0.5520  0.5869
 3783SOL    HW111484   4.404   1.832   2.167  1.6370  0.4544  1.4577
 3783SOL    HW211485   4.528   1.783   2.096  0.1185  0.6442 -1.4861
 3784SOL     OW11486   1.462   2.118   1.433  0.6139  0.6328 -0.7589
 3784SOL    HW111487   1.483   2.094   1.524 -0.7510  1.2971 -0.2251
 3784SOL    HW211488   1.372   2.150   1.438  0.7203  1.2293 -2.2660
 3785SOL     OW11489   3.982   4.952   2.665 -0.7971 -0.0230  0.5437
 3785SOL    HW111490   3.959   4.996   2.584 -0.7019  0.1400  0.6055
 3785SOL    HW211491   4.023   5.020   2.719  1.3906 -0.6670 -0.1926
 3786SOL     OW11492   3.569   3.635   4.034 -0.7218  0.6196 -0.3767
 3786SOL    HW111493   3.520   3.717   4.041  0.9103  1.6139  0.2064
 3786SOL    HW211494   3.624   3.634   4.113 -1.0609 -1.3031 -0.1240
 3787SOL     OW11495   1.763   3.111   4.567  0.0696 -0.5769  0.8881
 3787SOL    HW111496   1.839   3.107   4.509 -1.6037  1.8379 -1.7569
 3787SOL    HW211497   1.761   3.202   4.597 -1.6575 -0.6356  1.0499
 3788SOL     OW11498   0.823   4.286   1.025  0.4302 -0.9908  0.0442
 3788SOL    HW111499   0.807   4.201   0.986  1.4466 -0.7200 -1.0137
 3788SOL    HW211500   0.875   4.334   0.960  2.0307 -0.4592  1.6204
 3789SOL     OW11501   1.640   3.441   4.874  0.1466 -0.2697  0.5746
 3789SOL    HW111502   1.675   3.397   4.796  1.3612 -0.2949  1.1073
 3789SOL    HW211503   1.610   3.526   4.842  0.2305 -0.4534  0.0003
 3790SOL     OW11504   3.364   3.241   4.295 -0.3294 -0.5058  0.5103
 3790SOL    HW111505   3.316   3.230   4.213  0.8360 -0.4556 -0.1991
 3790SOL    HW211506   3.391   3.333   4.296  3.5870 -1.4214 -1.3645
 3791SOL     OW11507   4.979   1.374   0.023 -0.3915 -0.1216  0.0148
 3791SOL    HW111508   4.903   1.432   0.036  0.5933  1.2029  0.0829
 3791SOL    HW211509   4.969   1.306   0.089 -1.5131  0.0389  0.0298
 3792SOL     OW11510   3.821   1.467   4.667  0.2214 -0.1552 -0.2627
 3792SOL    HW111511   3.899   1.452   4.613  1.2804  0.2663  1.1018
 3792SOL    HW211512   3.774   1.383   4.664  0.6008 -0.3449 -1.2837
 3793SOL     OW11513   4.296   4.968   2.711 -0.3988  0.1590  0.1366
 3793SOL    HW111514   4.312   4.948   2.619 -0.4567 -0.5246  0.2728
 3793SOL    HW211515   4.255   5.055   2.710  0.2284  0.4628 -0.4334
 3794SOL     OW11516   3.944   0.550   4.326 -0.0050 -0.3488 -0.5662
 3794SOL    HW111517   3.891   0.559   4.405  0.3339  1.5006 -0.4877
 3794SOL    HW211518   3.892   0.592   4.258  0.1566 -1.0103 -1.0969
 3795SOL     OW11519   4.781   3.766   2.528  0.5319 -0.8904  0.2551
 3795SOL    HW111520   4.746   3.747   2.615 -1.6264 -0.4426 -0.4487
 3795SOL    HW211521   4.865   3.809   2.544  0.0058 -0.4813  2.1204
 3796SOL     OW11522   2.567   2.527   1.640 -0.0019 -0.0697 -0.8035
 3796SOL    HW111523   2.639   2.474   1.608  1.5593 -0.4733  2.8992
 3796SOL    HW211524   2.600   2.617   1.637 -0.3503  0.0451 -1.4383
 3797SOL     OW11525   1.924   0.929   3.054  0.0601 -0.0038 -0.4280
 3797SOL    HW111526   1.943   0.982   2.977 -1.8509  0.1781 -0.8033
 3797SOL    HW211527   1.880   0.989   3.114 -1.9529 -1.0328 -0.7787
 3798SOL     OW11528   4.082   1.999   3.593  0.4926  0.3122 -0.1007
 3798SOL    HW111529   4.013   1.995   3.660  0.7550 -0.6867  0.1248
 3798SOL    HW211530   4.153   2.046   3.636  0.4762  0.1056  0.1583
 3799SOL     OW11531   4.417   4.209   1.149 -0.0240 -0.5868 -0.4959
 3799SOL    HW111532   4.395   4.121   1.119 -0.5374 -0.2644 -1.0996
 3799SOL    HW211533   4.371   4.267   1.089 -1.0314  0.0911  0.8707
 3800SOL     OW11534   0.265   0.979   1.134 -0.2675 -0.6546  0.4286
 3800SOL    HW111535   0.192   1.024   1.091 -0.2769 -1.3600 -0.3197
 3800SOL    HW211536   0.254   0.887   1.111  1.5292 -0.6399 -0.7410
 3801SOL     OW11537   4.745   2.337   3.950  0.4988  0.2925  0.8057
 3801SOL    HW111538   4.774   2.250   3.976 -0.4509 -0.3036 -0.0471
 3801SOL    HW211539   4.822   2.377   3.910  0.8215 -0.3167  0.8130
 3802SOL     OW11540   3.512   0.741   0.693 -0.5350  0.7862  0.5167
 3802SOL    HW111541   3.479   0.653   0.673  0.1182  0.6538  0.0048
 3802SOL    HW211542   3.477   0.796   0.623  1.2972  0.4215 -0.7567
 3803SOL     OW11543   2.232   0.612   3.146  0.2475 -0.3076 -0.0719
 3803SOL    HW111544   2.216   0.643   3.235 -0.2904  3.0835 -1.1932
 3803SOL    HW211545   2.144   0.595   3.110  0.4916 -2.4105  0.1939
 3804SOL     OW11546   2.765   4.424   1.121  0.4669 -0.8760 -0.4623
 3804SOL    HW111547   2.781   4.397   1.030  1.5964 -1.4087 -0.1331
 3804SOL    HW211548   2.851   4.456   1.151  0.2375 -1.2259  0.5881
 3805SOL     OW11549   2.715   1.492   4.557  0.2717 -0.1556  0.3942
 3805SOL    HW111550   2.752   1.404   4.569  0.5058 -0.3932 -1.6819
 3805SOL    HW211551   2.779   1.536   4.501 -0.9901  0.5365 -0.5223
 3806SOL     OW11552   3.616   2.185   1.906 -0.1174  0.5972  0.1056
 3806SOL    HW111553   3.619   2.104   1.856 -2.5853  0.2479  0.4253
 3806SOL    HW211554   3.708   2.207   1.922  0.9297  1.0007 -4.9152
 3807SOL     OW11555   2.051   0.123   1.426  0.2217 -0.5994  0.5344
 3807SOL    HW111556   2.029   0.035   1.458  1.5490 -0.3681  2.2594
 3807SOL    HW211557   2.137   0.112   1.384  1.0956  0.0532  2.0360
 3808SOL     OW11558   4.643   4.905   1.807 -0.2261 -0.0135  0.5754
 3808SOL    HW111559   4.614   4.863   1.888 -1.1505 -0.4814  0.0137
 3808SOL    HW211560   4.698   4.840   1.764 -1.7693 -0.7736 -0.3618
 3809SOL     OW11561   2.522   0.776   2.730 -0.5410 -0.5905 -0.0268
 3809SOL    HW111562   2.524   0.717   2.654 -2.9442 -2.2945  1.0946
 3809SOL    HW211563   2.468   0.850   2.702  0.9566  0.2643 -0.8279
 3810SOL     OW11564   1.582   2.030   4.589 -0.3009 -0.2007  0.3714
 3810SOL    HW111565   1.656   2.065   4.539  0.3669  0.0004  1.4691
 3810SOL    HW211566   1.622   1.990   4.666 -1.3013 -0.5592  0.7171
 3811SOL     OW11567   1.015   2.582   1.741 -0.5147  0.0713 -0.4547
 3811SOL    HW111568   1.057   2.597   1.826 -2.2575 -2.0007  0.9116
 3811SOL    HW211569   1.034   2.660   1.690  2.2377  0.5669  1.1318
 3812SOL     OW11570   3.689   0.824   1.677  0.1724  0.1111 -0.2675
 3812SOL    HW111571   3.783   0.834   1.689  0.0306  0.4091  0.6804
 3812SOL    HW211572   3.678   0.737   1.640  0.7139 -0.5933  1.1716
 3813SOL     OW11573   4.517   0.718   4.862 -0.3182 -0.2212  0.4404
 3813SOL    HW111574   4.611   0.700   4.865 -0.0548  0.9149 -0.4751
 3813SOL    HW211575   4.496   0.725   4.769 -1.2696 -0.2027  0.6432
 3814SOL     OW11576   4.661   4.763   4.706  0.7262 -0.1177 -0.2976
 3814SOL    HW111577   4.691   4.818   4.634  1.2068  0.3797  0.2681
 3814SOL    HW211578   4.693   4.807   4.785 -0.6750 -0.0858  0.2874
 3815SOL     OW11579   1.857   2.134   1.781  0.3258  0.0450 -0.0651
 3815SOL    HW111580   1.946   2.103   1.797  0.0067  0.0641  1.9784
 3815SOL    HW211581   1.867   2.212   1.727  1.5475  0.1469  0.3007
 3816SOL     OW11582   4.050   4.964   2.099  0.2314 -0.9985  0.1219
 3816SOL    HW111583   3.962   4.934   2.078 -0.2619 -0.4975  1.3803
 3816SOL    HW211584   4.052   5.054   2.067 -0.7616  0.0116  2.6279
 3817SOL     OW11585   4.870   5.012   2.892 -1.4085 -0.3148 -0.3472
 3817SOL    HW111586   4.946   4.954   2.894 -1.3250 -0.3051  3.4348
 3817SOL    HW211587   4.834   5.001   2.804  2.8579 -0.3318 -2.3256
 3818SOL     OW11588   3.920   0.575   1.889 -0.1267 -0.1074  0.1530
 3818SOL    HW111589   3.890   0.665   1.897  0.9829  0.1887  1.2693
 3818SOL    HW211590   3.853   0.524   1.936 -1.2570 -0.0054 -1.2893
 3819SOL     OW11591   4.315   0.629   1.876  0.4971  0.7903  0.6606
 3819SOL    HW111592   4.337   0.717   1.904 -0.6474  1.2411  0.1787
 3819SOL    HW211593   4.382   0.607   1.811  2.7612 -0.0011  3.0927
 3820SOL     OW11594   2.747   4.285   0.888 -0.5071 -0.4224 -0.3392
 3820SOL    HW111595   2.753   4.200   0.846  0.8356 -0.4629 -0.1017
 3820SOL    HW211596   2.670   4.326   0.848 -1.4399 -1.8968 -0.1357
 3821SOL     OW11597   3.795   4.423   1.836  0.2240  0.0248  0.4807
 3821SOL    HW111598   3.707   4.386   1.835  0.2423 -0.0203  0.5239
 3821SOL    HW211599   3.850   4.353   1.871  0.0873  0.4771  1.6395
 3822SOL     OW11600   4.778   2.981   3.158  0.4679  0.7084 -0.4050
 3822SOL    HW111601   4.728   3.029   3.224  0.7102  0.5108 -0.0740
 3822SOL    HW211602   4.752   2.889   3.171  0.8224  0.6178 -0.3040
 3823SOL     OW11603   2.527   2.274   0.889 -0.2434 -0.2125 -0.4301
 3823SOL    HW111604   2.576   2.220   0.827 -0.3841 -1.3269  0.4022
 3823SOL    HW211605   2.458   2.217   0.922 -0.2236  0.3817  0.6933
 3824SOL     OW11606   4.488   3.029   0.139 -0.4179 -0.0093 -0.1049
 3824SOL    HW111607   4.497   3.038   0.044 -1.6413 -1.7349 -0.4298
 3824SOL    HW211608   4.433   3.103   0.164 -2.2964 -0.9720 -1.1852
 3825SOL     OW11609   3.701   0.109   1.834 -0.0079 -0.1738  0.7375
 3825SOL    HW111610   3.654   0.042   1.884 -0.0907 -1.1056 -0.5451
 3825SOL    HW211611   3.778   0.064   1.800  2.8652  1.6890  4.1019
 3826SOL     OW11612   4.496   4.971   4.308 -0.1034  0.3756  0.3134
 3826SOL    HW111613   4.458   4.903   4.252  0.3927  0.6459 -0.3605
 3826SOL    HW211614   4.522   4.924   4.387 -0.9445  0.0142  0.3861
 3827SOL     OW11615   2.501   4.269   0.155  0.2736  0.3664 -0.1090
 3827SOL    HW111616   2.484   4.181   0.186  1.1247  0.7746  1.6660
 3827SOL    HW211617   2.437   4.324   0.201  0.6722  0.8298 -0.0962
 3828SOL     OW11618   0.569   1.012   1.177 -0.1884 -0.5133 -0.0601
 3828SOL    HW111619   0.585   0.925   1.142  0.5776 -0.3027 -0.2584
 3828SOL    HW211620   0.479   1.033   1.150 -0.5696 -1.4473  0.4515
 3829SOL     OW11621   4.830   3.767   4.659 -0.0278 -0.3579  0.4235
 3829SOL    HW111622   4.774   3.691   4.676 -0.4934  0.2125  1.5499
 3829SOL    HW211623   4.910   3.730   4.621 -0.5527 -1.3332  0.2384
 3830SOL     OW11624   2.878   1.339   2.617 -0.5629  0.2025  0.5570
 3830SOL    HW111625   2.930   1.265   2.586 -1.7167  0.4469 -2.2153
 3830SOL    HW211626   2.858   1.318   2.708  1.3848 -1.5596  0.6441
 3831SOL     OW11627   4.397   1.631   3.556  0.1371 -0.0668  0.7319
 3831SOL    HW111628   4.453   1.672   3.621 -0.0691 -0.0039  0.8721
 3831SOL    HW211629   4.381   1.543   3.590  2.0834 -0.9631 -0.4500
 3832SOL     OW11630   1.530   1.541   1.376  0.0925 -0.9347  0.2799
 3832SOL    HW111631   1.503   1.491   1.299  0.8648 -0.9094 -0.0150
 3832SOL    HW211632   1.564   1.623   1.341 -1.6704  0.0652  0.7938
 3833SOL     OW11633   0.629   4.444   2.553  0.4962 -0.2204  0.3255
 3833SOL    HW111634   0.539   4.413   2.554  0.9100 -1.7598 -1.9109
 3833SOL    HW211635   0.680   4.369   2.522  2.4302  0.9113  0.5793
 3834SOL     OW11636   0.245   0.665   4.359  0.2049 -0.6813  0.1078
 3834SOL    HW111637   0.202   0.580   4.367 -3.5251  1.1084  1.1129
 3834SOL    HW211638   0.292   0.676   4.442 -0.4391 -1.1977  0.5477
 3835SOL     OW11639   4.166   2.927   1.530  0.2607 -0.1208 -0.2628
 3835SOL    HW111640   4.192   2.902   1.441  0.3116  0.1755 -0.3324
 3835SOL    HW211641   4.218   3.006   1.549  0.4541 -0.3411  0.1345
 3836SOL     OW11642   1.714   4.531   1.894  0.1751  0.6012  0.2002
 3836SOL    HW111643   1.655   4.455   1.897  0.6332  0.2659  1.1678
 3836SOL    HW211644   1.657   4.606   1.912 -0.2496  0.4888 -0.5888
 3837SOL     OW11645   0.538   1.989   4.890 -0.5475 -0.4320  0.5318
 3837SOL    HW111646   0.569   1.911   4.935 -0.2917 -1.8540 -1.9124
 3837SOL    HW211647   0.444   1.990   4.905 -0.4510 -0.8069  1.1769
 3838SOL     OW11648   1.297   0.308   4.326 -0.3145  0.3490  0.5085
 3838SOL    HW111649   1.269   0.398   4.308  0.0683  0.1461 -1.2661
 3838SOL    HW211650   1.369   0.318   4.389  0.2563  1.3517 -0.2770
 3839SOL     OW11651   0.578   0.866   3.747 -0.1341  0.4363  0.2259
 3839SOL    HW111652   0.498   0.918   3.745 -0.8123 -0.5750  0.3090
 3839SOL    HW211653   0.649   0.929   3.734 -0.9134  1.4090  0.6135
 3840SOL     OW11654   1.432   1.832   2.737 -0.8143 -0.2455  0.4597
 3840SOL    HW111655   1.390   1.844   2.652 -0.5339  0.3951  0.4095
 3840SOL    HW211656   1.485   1.753   2.727 -1.0384 -0.3552  0.1415
 3841SOL     OW11657   1.118   3.161   1.792  0.0022  0.4984 -0.4494
 3841SOL    HW111658   1.179   3.230   1.816  0.1801  0.7531 -1.5515
 3841SOL    HW211659   1.172   3.082   1.788  0.9608  1.1137 -3.9207
 3842SOL     OW11660   4.130   0.505   2.942  0.1224  0.6032 -0.8488
 3842SOL    HW111661   4.211   0.507   2.891  0.4017 -2.6552 -0.7295
 3842SOL    HW211662   4.154   0.544   3.026  1.5395 -0.1039 -0.8898
 3843SOL     OW11663   4.418   1.232   0.140 -0.1218 -0.2524  0.1700
 3843SOL    HW111664   4.338   1.180   0.145  0.0891 -0.5266  0.9009
 3843SOL    HW211665   4.478   1.180   0.086 -0.5870  0.1693 -0.7644
 3844SOL     OW11666   3.140   4.229   0.330  0.4186 -1.0650  0.0204
 3844SOL    HW111667   3.085   4.193   0.400 -1.2940  0.2434 -0.5860
 3844SOL    HW211668   3.186   4.302   0.370  0.8472 -1.4346  0.2195
 3845SOL     OW11669   0.750   4.775   1.640 -0.3890 -0.4013 -0.5294
 3845SOL    HW111670   0.779   4.862   1.613  0.1756  0.1899  1.7395
 3845SOL    HW211671   0.654   4.781   1.641 -0.3701  0.0030 -0.9561
 3846SOL     OW11672   0.861   3.410   4.384 -0.0716  0.4199 -0.4102
 3846SOL    HW111673   0.897   3.355   4.453  0.4765  0.1100 -0.9343
 3846SOL    HW211674   0.766   3.396   4.389 -0.0208  0.2326  0.1304
 3847SOL     OW11675   3.665   4.397   3.708  0.3145 -0.4730  0.0904
 3847SOL    HW111676   3.693   4.419   3.797 -0.5112  1.3338 -0.0568
 3847SOL    HW211677   3.659   4.481   3.663 -0.2183 -1.2727 -1.4074
 3848SOL     OW11678   3.034   0.853   3.211 -0.1785  0.3427  0.0311
 3848SOL    HW111679   3.017   0.939   3.249 -2.0218 -0.0232  0.1288
 3848SOL    HW211680   2.978   0.793   3.260  0.5963 -0.8242 -0.4582
 3849SOL     OW11681   4.195   1.180   2.730  0.4983  0.9569 -0.7082
 3849SOL    HW111682   4.272   1.228   2.702  1.3818 -0.9757 -1.7539
 3849SOL    HW211683   4.225   1.126   2.803  0.4014 -0.4489 -1.6656
 3850SOL     OW11684   2.988   3.319   2.890 -0.1796 -0.3942  0.0677
 3850SOL    HW111685   2.982   3.359   2.804 -1.1051 -1.2975 -0.3073
 3850SOL    HW211686   3.073   3.273   2.889  1.2235  2.0225  0.7565
 3851SOL     OW11687   0.745   2.911   1.835 -0.0870 -0.1066  0.0139
 3851SOL    HW111688   0.776   2.968   1.905 -1.6389  1.7364 -0.7158
 3851SOL    HW211689   0.756   2.822   1.870  2.5315  0.5750  1.1190
 3852SOL     OW11690   1.949   2.960   3.312  0.6740  0.7252 -0.4484
 3852SOL    HW111691   1.935   3.048   3.347  0.6835  0.4054  0.3722
 3852SOL    HW211692   2.044   2.948   3.312  0.6285 -0.1428  1.6811
 3853SOL     OW11693   0.080   1.706   4.536  0.2607 -0.2381  0.3622
 3853SOL    HW111694   0.015   1.668   4.595 -0.1490 -1.4806 -0.8441
 3853SOL    HW211695   0.041   1.788   4.506 -0.6268 -0.8304 -0.1236
 3854SOL     OW11696   1.500   3.354   2.660  0.3494 -0.0412 -0.1511
 3854SOL    HW111697   1.433   3.409   2.698  0.9085  0.1343  0.6170
 3854SOL    HW211698   1.462   3.266   2.660  0.8102 -0.3208  2.1761
 3855SOL     OW11699   4.495   1.439   4.093  0.1492  0.5064 -0.0820
 3855SOL    HW111700   4.451   1.420   4.176  1.4671  0.6035  0.6706
 3855SOL    HW211701   4.585   1.461   4.118  0.1640  2.1071 -1.4122
 3856SOL     OW11702   4.189   4.471   4.057  0.5549  0.0288 -0.2162
 3856SOL    HW111703   4.269   4.505   4.016  0.9671  1.7466  1.8657
 3856SOL    HW211704   4.205   4.377   4.066  1.4528  0.0118 -1.7048
 3857SOL     OW11705   2.800   1.808   0.420  0.2558 -0.5238  0.5722
 3857SOL    HW111706   2.761   1.888   0.385  0.7907 -0.2149  0.6636
 3857SOL    HW211707   2.877   1.793   0.365 -1.7823 -3.0557 -1.8986
 3858SOL     OW11708   4.572   0.326   1.622 -0.2043  0.0091  0.0588
 3858SOL    HW111709   4.651   0.295   1.579 -0.1998 -0.0438  0.1041
 3858SOL    HW211710   4.562   0.268   1.698  0.5696  0.9731  0.9262
 3859SOL     OW11711   1.929   0.521   0.564 -0.6041 -0.3019  0.2326
 3859SOL    HW111712   2.011   0.471   0.563 -0.4566 -0.0561 -0.5221
 3859SOL    HW211713   1.951   0.601   0.612  0.1268  0.6084 -1.5467
 3860SOL     OW11714   4.695   3.820   0.508  0.6591  0.0168 -0.3774
 3860SOL    HW111715   4.748   3.769   0.568 -1.5062 -2.1539 -0.1588
 3860SOL    HW211716   4.755   3.887   0.474  2.8103 -0.7358  1.6504
 3861SOL     OW11717   0.684   1.841   4.622  0.1005 -0.5571 -0.2762
 3861SOL    HW111718   0.612   1.859   4.561  0.2849  1.1824 -0.0322
 3861SOL    HW211719   0.657   1.882   4.704  1.0720 -0.4681  0.0160
 3862SOL     OW11720   0.692   2.246   1.496 -0.7789  0.1595 -0.8265
 3862SOL    HW111721   0.698   2.168   1.550 -0.3583  1.8104  1.7025
 3862SOL    HW211722   0.771   2.296   1.516 -0.3367  0.6797 -3.4298
 3863SOL     OW11723   0.703   1.575   1.684  0.2378  0.4740 -0.1404
 3863SOL    HW111724   0.786   1.611   1.652 -0.1744  0.1943 -1.6034
 3863SOL    HW211725   0.694   1.492   1.638 -0.8013  0.4585  0.0760
 3864SOL     OW11726   4.319   4.274   1.398 -0.1369 -0.8416  0.4140
 3864SOL    HW111727   4.332   4.203   1.460  0.8773 -1.4480 -0.4585
 3864SOL    HW211728   4.370   4.249   1.321  0.1034  0.7325  0.0112
 3865SOL     OW11729   3.170   0.496   2.715  0.7605  0.3483  0.0048
 3865SOL    HW111730   3.257   0.501   2.753  0.9526 -1.4821 -0.0961
 3865SOL    HW211731   3.184   0.489   2.621  0.5630 -0.5406  0.0269
 3866SOL     OW11732   1.099   4.640   4.559 -0.0787 -0.8244  0.4820
 3866SOL    HW111733   1.070   4.731   4.550  2.5769  0.1879  1.1505
 3866SOL    HW211734   1.046   4.591   4.496 -0.8486  1.3555 -0.6540
 3867SOL     OW11735   1.823   2.956   2.027 -0.6336 -0.4542  0.6779
 3867SOL    HW111736   1.858   2.915   2.107 -2.0052 -1.8399  0.6147
 3867SOL    HW211737   1.751   2.899   2.001 -1.5767  1.1500 -0.3722
 3868SOL     OW11738   0.026   0.401   3.700 -0.9298 -0.3882 -0.5342
 3868SOL    HW111739   0.068   0.322   3.734 -1.8295  0.3170  2.4266
 3868SOL    HW211740  -0.064   0.396   3.731 -0.5238  2.7169  1.5427
 3869SOL     OW11741   3.488   2.979   4.681  0.4161 -0.0063  0.1537
 3869SOL    HW111742   3.526   3.060   4.713 -0.1063 -0.8027  3.0914
 3869SOL    HW211743   3.539   2.910   4.724  1.5333 -1.3785 -3.0412
 3870SOL     OW11744   1.632   2.930   1.709 -0.0293  0.6837 -0.4939
 3870SOL    HW111745   1.726   2.944   1.698 -0.1117  0.7814 -1.1227
 3870SOL    HW211746   1.625   2.848   1.757  0.3759  0.4342 -0.8501
 3871SOL     OW11747   1.486   1.309   2.712 -0.6346  0.0775 -0.0798
 3871SOL    HW111748   1.399   1.292   2.676 -0.4602  0.1710 -0.5562
 3871SOL    HW211749   1.489   1.258   2.793 -0.9682 -0.2768 -0.2860
 3872SOL     OW11750   2.790   1.320   1.242  0.1036 -0.7680 -0.0714
 3872SOL    HW111751   2.777   1.241   1.189  0.6074 -1.8142  1.3051
 3872SOL    HW211752   2.707   1.331   1.288 -0.8343  0.9239 -1.9717
 3873SOL     OW11753   0.939   3.046   4.883  0.6108  0.0681  0.4664
 3873SOL    HW111754   0.865   3.048   4.943 -1.5786  1.1708 -2.0550
 3873SOL    HW211755   0.968   2.955   4.882 -1.5287 -0.6627  0.6288
 3874SOL     OW11756   4.167   2.852   3.708  0.4048  0.3929 -0.1561
 3874SOL    HW111757   4.242   2.844   3.649 -0.2569 -1.2742 -0.8173
 3874SOL    HW211758   4.115   2.923   3.672  1.9067  1.9868  0.6385
 3875SOL     OW11759   1.292   3.416   1.757 -0.5817  0.3215  0.2587
 3875SOL    HW111760   1.332   3.388   1.675 -0.0712 -1.6223  1.1184
 3875SOL    HW211761   1.341   3.495   1.782 -1.2693  1.4083 -1.6498
 3876SOL     OW11762   2.131   2.128   1.871  0.0324  0.3903  0.8149
 3876SOL    HW111763   2.211   2.180   1.875  0.5405 -0.3236  0.1750
 3876SOL    HW211764   2.152   2.049   1.920  1.4691 -2.0345 -3.2506
 3877SOL     OW11765   4.847   1.050   0.218 -0.0012  0.0521 -0.2724
 3877SOL    HW111766   4.851   1.020   0.127 -1.0536  2.1416 -1.0682
 3877SOL    HW211767   4.777   0.997   0.257 -0.5613  0.1493 -1.1160
 3878SOL     OW11768   2.809   3.000   1.415 -0.4214  0.8841 -1.2225
 3878SOL    HW111769   2.847   3.010   1.328 -0.7867  0.4501 -1.4366
 3878SOL    HW211770   2.742   2.932   1.404  1.2053 -1.0148 -0.0802
 3879SOL     OW11771   3.965   1.063   2.638  0.7455 -0.2260 -0.0317
 3879SOL    HW111772   4.026   1.080   2.709  0.6907 -2.7298  0.7001
 3879SOL    HW211773   3.980   0.972   2.614 -1.7175 -0.5178 -0.7865
 3880SOL     OW11774   2.577   0.910   0.907 -0.5484 -0.0737  0.5505
 3880SOL    HW111775   2.655   0.863   0.936 -0.1764 -1.5421 -2.5287
 3880SOL    HW211776   2.505   0.850   0.926 -0.4411 -0.5003 -0.3517
 3881SOL     OW11777   0.824   3.129   4.633 -0.0814 -0.3036 -0.1785
 3881SOL    HW111778   0.739   3.156   4.668  0.8387  1.5797  0.7935
 3881SOL    HW211779   0.884   3.137   4.708  1.1505 -0.4457 -1.1197
 3882SOL     OW11780   1.742   1.353   0.418 -0.0968 -0.2410 -0.3611
 3882SOL    HW111781   1.789   1.278   0.455 -0.4902 -0.3961 -0.1650
 3882SOL    HW211782   1.805   1.395   0.359  0.8261  0.5411  1.1426
 3883SOL     OW11783   3.877   4.726   1.484  0.8792  0.6571 -0.3017
 3883SOL    HW111784   3.899   4.636   1.462 -0.9942  0.5944 -2.2917
 3883SOL    HW211785   3.862   4.725   1.578 -1.8677 -1.8652 -0.6091
 3884SOL     OW11786   0.447   1.624   4.146 -0.2732 -0.0058 -0.2576
 3884SOL    HW111787   0.380   1.555   4.143  0.2944 -0.6050 -3.5092
 3884SOL    HW211788   0.483   1.619   4.234 -1.1829 -2.9764  0.0661
 3885SOL     OW11789   3.984   0.617   1.218 -0.1235 -0.0752  0.3172
 3885SOL    HW111790   3.973   0.696   1.270  0.3616 -1.4378  2.6316
 3885SOL    HW211791   3.928   0.552   1.262  0.4661 -1.3588 -0.7590
 3886SOL     OW11792   2.151   1.843   0.382 -0.1331 -0.7751 -0.0782
 3886SOL    HW111793   2.183   1.931   0.404  1.7104 -1.4670  0.1556
 3886SOL    HW211794   2.085   1.859   0.314  0.1985  0.7907 -0.0830
 3887SOL     OW11795   2.270   4.479   1.414  0.3251 -0.5441 -0.0725
 3887SOL    HW111796   2.226   4.428   1.346 -2.1777  0.4823  0.6590
 3887SOL    HW211797   2.214   4.468   1.491  1.0551  1.3239  0.7691
 3888SOL     OW11798   4.585   3.898   0.247  0.6482  0.0112  0.5732
 3888SOL    HW111799   4.508   3.939   0.287 -0.8505 -1.7273 -0.3925
 3888SOL    HW211800   4.626   3.851   0.320 -0.3369 -0.6619  0.7114
 3889SOL     OW11801   1.124   3.220   3.852 -0.8642  0.1383  0.3332
 3889SOL    HW111802   1.192   3.171   3.807 -0.4804  0.9600  0.0003
 3889SOL    HW211803   1.051   3.158   3.859  0.5267 -1.4211  2.4211
 3890SOL     OW11804   3.234   0.688   1.109  0.1432  0.0249  0.1588
 3890SOL    HW111805   3.206   0.654   1.023 -0.7591  1.0674  0.0177
 3890SOL    HW211806   3.224   0.613   1.168 -0.4993 -0.3513 -0.4031
 3891SOL     OW11807   3.691   3.627   0.003  0.2318 -0.4361  0.5686
 3891SOL    HW111808   3.663   3.699   0.060  0.6859  1.2517 -1.2120
 3891SOL    HW211809   3.778   3.653  -0.028  0.3114 -1.6404 -0.3026
 3892SOL     OW11810   3.585   3.964   2.284 -0.2008  0.1237 -0.1972
 3892SOL    HW111811   3.659   3.971   2.224 -0.3631 -1.1468 -0.5641
 3892SOL    HW211812   3.612   3.897   2.347 -0.1574  1.2110  0.9937
 3893SOL     OW11813   3.770   4.733   1.080  0.2950 -0.4410  0.5380
 3893SOL    HW111814   3.711   4.703   1.149  0.2270 -1.1459  0.1873
 3893SOL    HW211815   3.856   4.738   1.122  0.3446 -1.3295  0.5674
 3894SOL     OW11816   3.362   0.720   4.146 -0.1831  0.0825  0.4997
 3894SOL    HW111817   3.431   0.655   4.162  1.7281  1.2842 -2.1410
 3894SOL    HW211818   3.309   0.718   4.226  0.6957 -3.5210  1.1913
 3895SOL     OW11819   0.568   1.148   0.934  0.3381  0.1916  0.2165
 3895SOL    HW111820   0.610   1.223   0.892 -0.8519  0.9029  0.2290
 3895SOL    HW211821   0.603   1.148   1.023 -1.8732  2.7227  1.2528
 3896SOL     OW11822   2.891   4.877   1.120  0.3880 -0.1207 -0.0512
 3896SOL    HW111823   2.836   4.841   1.190  1.5322 -2.0857 -0.0715
 3896SOL    HW211824   2.977   4.889   1.160  1.0287 -1.1478 -1.0205
 3897SOL     OW11825   2.368   1.713   0.476 -0.4385  0.5234 -0.5412
 3897SOL    HW111826   2.427   1.663   0.419  0.5614  0.1622  0.7597
 3897SOL    HW211827   2.290   1.727   0.423 -0.2632 -1.3781 -1.3885
 3898SOL     OW11828   1.937   4.954   0.098 -0.0504 -0.0041  0.4745
 3898SOL    HW111829   2.012   5.010   0.079 -1.5908  1.4432 -1.9096
 3898SOL    HW211830   1.863   5.015   0.107 -1.7355 -1.5377 -1.8540
 3899SOL     OW11831   2.647   1.676   2.144 -0.5130  0.2428 -0.5574
 3899SOL    HW111832   2.618   1.739   2.210 -1.9644 -0.0608 -0.8573
 3899SOL    HW211833   2.742   1.672   2.154 -0.4648  1.8942 -0.0107
 3900SOL     OW11834   3.496   3.626   2.128 -0.6274 -0.1568  0.2254
 3900SOL    HW111835   3.485   3.536   2.098 -1.9121  0.4857 -1.3986
 3900SOL    HW211836   3.407   3.656   2.147 -0.0113 -0.1393  3.8372
 3901SOL     OW11837   1.716   1.372   1.147 -0.2387  0.5277 -0.0597
 3901SOL    HW111838   1.757   1.287   1.128 -2.3960 -0.1068 -2.4106
 3901SOL    HW211839   1.786   1.435   1.135  0.1184 -0.4204 -4.8405
 3902SOL     OW11840   3.507   3.813   0.614  0.3923 -0.4281  0.1933
 3902SOL    HW111841   3.596   3.820   0.582 -0.1627  1.2976 -1.1437
 3902SOL    HW211842   3.452   3.827   0.537 -1.0060  1.3476  1.4224
 3903SOL     OW11843   0.134   3.173   3.894 -0.2054 -0.3548  0.1150
 3903SOL    HW111844   0.166   3.198   3.807  1.1834 -1.7329  0.1823
 3903SOL    HW211845   0.045   3.139   3.878 -0.5576  0.8366 -0.5213
 3904SOL     OW11846   0.363   3.581   2.585 -0.3606 -0.1820  0.3528
 3904SOL    HW111847   0.357   3.658   2.528  1.0432  0.9768  1.6887
 3904SOL    HW211848   0.411   3.612   2.662 -0.3633 -2.2407  1.2360
 3905SOL     OW11849   1.577   4.744   1.936 -0.8897 -0.4146  0.5929
 3905SOL    HW111850   1.560   4.812   1.871 -3.4255 -1.2526  0.2737
 3905SOL    HW211851   1.527   4.771   2.013 -0.5836 -1.0732  1.0329
 3906SOL     OW11852   0.105   4.785   1.172 -1.0046 -0.2435 -0.3538
 3906SOL    HW111853   0.158   4.706   1.180 -1.9022 -0.9206 -0.8800
 3906SOL    HW211854   0.062   4.794   1.257  0.0780  0.4256  0.1455
 3907SOL     OW11855   3.779   2.727   4.856  0.1942  0.1953  0.0205
 3907SOL    HW111856   3.800   2.808   4.811  0.8169 -0.3576 -0.7094
 3907SOL    HW211857   3.830   2.730   4.937  0.4532  0.3864 -0.1527
 3908SOL     OW11858   1.537   2.237   0.571 -0.3057  0.1570 -0.0283
 3908SOL    HW111859   1.456   2.261   0.526 -0.0291  0.8856 -0.1525
 3908SOL    HW211860   1.512   2.224   0.662 -0.8329 -1.1201 -0.3289
 3909SOL     OW11861   2.336   4.913   2.618  0.0340 -0.5502  0.0980
 3909SOL    HW111862   2.278   4.840   2.597 -0.0377 -0.7390  0.9290
 3909SOL    HW211863   2.399   4.877   2.680  0.9706 -0.3098 -0.6937
 3910SOL     OW11864   2.109   2.492   4.326 -0.0844 -0.2404  0.6530
 3910SOL    HW111865   2.153   2.473   4.243  0.0152  0.8120  0.4548
 3910SOL    HW211866   2.180   2.512   4.387 -0.1720 -0.7698  0.9367
 3911SOL     OW11867   1.205   2.593   3.662 -0.3552 -0.7585  0.1138
 3911SOL    HW111868   1.271   2.569   3.726 -1.0502 -0.5140  0.9387
 3911SOL    HW211869   1.179   2.682   3.686  0.1483 -0.2408 -1.1765
 3912SOL     OW11870   4.345   2.151   3.995  0.4269  0.1705  0.0653
 3912SOL    HW111871   4.251   2.139   4.001 -0.2819  1.9320 -3.9972
 3912SOL    HW211872   4.364   2.223   4.055 -0.7386 -0.3216  1.0594
 3913SOL     OW11873   3.483   3.244   0.721 -0.1214  0.4199 -0.2942
 3913SOL    HW111874   3.566   3.280   0.753  0.2623  0.4188 -1.2542
 3913SOL    HW211875   3.478   3.157   0.761  0.3871  0.3874 -0.2968
 3914SOL     OW11876   1.883   0.853   4.925  0.4240  0.3202 -0.3361
 3914SOL    HW111877   1.950   0.918   4.949 -1.4343  2.3845 -0.3691
 3914SOL    HW211878   1.871   0.865   4.831  0.7528 -0.8234 -0.5390
 3915SOL     OW11879   0.980   1.523   1.563  0.0439 -0.1766 -0.0047
 3915SOL    HW111880   1.027   1.547   1.644  1.4726 -0.3105 -0.7612
 3915SOL    HW211881   0.920   1.454   1.591 -1.7165  1.8201  1.5333
 3916SOL     OW11882   0.853   0.797   1.835  0.0154 -0.1331 -0.4006
 3916SOL    HW111883   0.820   0.806   1.745 -0.8567 -1.8190 -0.2734
 3916SOL    HW211884   0.903   0.716   1.834  1.3388  0.6400  0.2817
 3917SOL     OW11885   1.113   1.461   2.075 -0.4363  0.2872 -0.3368
 3917SOL    HW111886   1.090   1.554   2.064  0.9065  0.6200 -0.5345
 3917SOL    HW211887   1.073   1.436   2.159 -0.5743  1.1160 -0.1452
 3918SOL     OW11888   4.285   2.333   1.775 -0.1218  0.1139 -0.1460
 3918SOL    HW111889   4.321   2.251   1.808 -1.8573 -0.6189  0.0605
 3918SOL    HW211890   4.297   2.395   1.847  0.7300 -0.0825 -0.1053
 3919SOL     OW11891   3.858   0.375   2.582 -0.1511  0.6513 -0.1838
 3919SOL    HW111892   3.832   0.315   2.652  0.3127 -1.0444 -1.4158
 3919SOL    HW211893   3.943   0.408   2.610  0.2353 -0.3537 -0.1506
 3920SOL     OW11894   1.901   4.365   2.607 -0.8456 -0.2132 -0.4143
 3920SOL    HW111895   1.840   4.291   2.605  0.4034 -1.2626 -1.3766
 3920SOL    HW211896   1.921   4.377   2.700  0.8534 -2.7612 -0.3495
 3921SOL     OW11897   4.620   3.096   4.067 -0.2585 -1.0161 -0.7280
 3921SOL    HW111898   4.554   3.165   4.065  0.3454 -0.4357 -2.0330
 3921SOL    HW211899   4.590   3.033   4.002 -0.0060 -1.2074 -0.6614
 3922SOL     OW11900   3.304   1.447   2.874  0.0681  0.0555  0.2597
 3922SOL    HW111901   3.277   1.397   2.797 -1.9077  1.5449 -0.0827
 3922SOL    HW211902   3.276   1.395   2.949 -1.3525  0.2954 -0.0879
 3923SOL     OW11903   3.550   0.513   4.179  0.8209 -0.2537 -0.3616
 3923SOL    HW111904   3.561   0.455   4.254  1.5896  1.4031  0.8585
 3923SOL    HW211905   3.575   0.460   4.103  2.0494 -1.3383  0.7677
 3924SOL     OW11906   0.047   0.060   0.213 -0.2354  0.5554  0.1485
 3924SOL    HW111907  -0.037   0.069   0.258 -0.2086 -0.2787  0.3858
 3924SOL    HW211908   0.108   0.109   0.267 -0.6094  1.4153 -0.1808
 3925SOL     OW11909   0.272   1.826   0.647  0.2657 -1.1781  0.6800
 3925SOL    HW111910   0.354   1.861   0.612  0.7702 -1.5078  1.5113
 3925SOL    HW211911   0.229   1.785   0.572 -0.3250  1.1249 -0.3346
 3926SOL     OW11912   2.463   3.176   1.761  0.3200 -0.1100  0.1482
 3926SOL    HW111913   2.441   3.229   1.838 -2.8827 -2.3242  0.9559
 3926SOL    HW211914   2.531   3.226   1.716  2.1704  1.4779  4.1862
 3927SOL     OW11915   2.856   0.416   2.096  0.1015 -0.0767  0.3296
 3927SOL    HW111916   2.900   0.336   2.069 -0.3285 -0.6701  1.3306
 3927SOL    HW211917   2.763   0.400   2.078  0.2711  1.2547 -1.9854
 3928SOL     OW11918   2.695   2.987   2.882 -0.4608 -0.3206  0.0868
 3928SOL    HW111919   2.607   2.983   2.847 -0.2779  0.7983 -0.5445
 3928SOL    HW211920   2.709   2.901   2.923 -0.9335 -1.4354 -1.9820
 3929SOL     OW11921   1.414   3.551   0.071 -0.3035  0.3226  0.1622
 3929SOL    HW111922   1.320   3.537   0.062 -0.1669 -0.7383  0.2413
 3929SOL    HW211923   1.454   3.489   0.010  0.3281  2.5877 -1.8978
 3930SOL     OW11924   4.665   2.484   4.189  0.5653  0.3208  0.3365
 3930SOL    HW111925   4.672   2.413   4.125 -1.1212 -0.8270  1.3526
 3930SOL    HW211926   4.722   2.457   4.261 -0.4576 -0.2781  0.9390
 3931SOL     OW11927   1.743   3.638   3.906  0.2271  0.3322 -0.3284
 3931SOL    HW111928   1.754   3.545   3.924  0.0392  0.5218  0.8441
 3931SOL    HW211929   1.832   3.673   3.904  0.3605 -0.0157 -1.7290
 3932SOL     OW11930   1.000   1.914   1.115  0.0652 -0.0496  0.7451
 3932SOL    HW111931   0.905   1.924   1.123  0.0642 -0.1639  0.8773
 3932SOL    HW211932   1.026   1.868   1.194  0.3307  0.6604  1.0800
 3933SOL     OW11933   3.414   0.487   0.644  0.5262 -0.7791  0.7479
 3933SOL    HW111934   3.431   0.441   0.726  2.3952 -2.1464 -0.3135
 3933SOL    HW211935   3.355   0.429   0.595 -0.0419 -0.2880  0.8381
 3934SOL     OW11936   3.071   3.673   0.543  0.1815 -0.1197  0.3577
 3934SOL    HW111937   3.126   3.751   0.551  1.6163 -1.2006  1.8783
 3934SOL    HW211938   3.022   3.670   0.625  1.3782 -1.6497  1.0660
 3935SOL     OW11939   0.341   3.819   2.403 -0.3288 -0.7532  0.1822
 3935SOL    HW111940   0.405   3.774   2.348 -0.0166 -0.3771  0.2287
 3935SOL    HW211941   0.282   3.861   2.341  0.0373 -0.3099  0.1245
 3936SOL     OW11942   1.757   1.921   4.751 -0.1460  0.3963 -0.3102
 3936SOL    HW111943   1.840   1.968   4.761  0.1763 -0.1151 -0.5518
 3936SOL    HW211944   1.748   1.871   4.833  1.0030 -1.4456 -1.2570
 3937SOL     OW11945   1.140   4.916   4.199 -0.0352 -0.1498  0.5927
 3937SOL    HW111946   1.225   4.960   4.208  0.3575 -1.2195  2.8959
 3937SOL    HW211947   1.132   4.898   4.105  1.6048  1.2616  0.1348
 3938SOL     OW11948  -0.018   1.864   0.693  0.0189 -0.1767 -0.8865
 3938SOL    HW111949  -0.032   1.770   0.681 -0.2095  0.0494 -2.6443
 3938SOL    HW211950   0.070   1.880   0.659  0.5047  0.0863  0.4387
 3939SOL     OW11951   2.781   0.154   1.046 -0.0884 -0.0723 -0.4417
 3939SOL    HW111952   2.810   0.076   1.093 -0.2922 -0.4665 -0.9604
 3939SOL    HW211953   2.859   0.182   0.998  0.4494  0.9971  0.9942
 3940SOL     OW11954   4.625   3.083   0.723  0.7075  0.2475 -0.2262
 3940SOL    HW111955   4.690   3.116   0.661  1.9893 -1.1134  0.3221
 3940SOL    HW211956   4.586   3.008   0.679 -0.7370  1.2010 -0.6528
 3941SOL     OW11957   1.110   4.301   3.959  0.0808  0.0687 -0.0698
 3941SOL    HW111958   1.062   4.367   4.010  0.5227  0.1779  0.2064
 3941SOL    HW211959   1.157   4.251   4.025  0.4758  0.0643 -0.3581
 3942SOL     OW11960   1.762   0.684   1.202  1.5092 -0.1158 -0.2506
 3942SOL    HW111961   1.787   0.595   1.175 -2.4144 -0.6787 -2.7090
 3942SOL    HW211962   1.677   0.673   1.244 -0.0979  2.6012 -2.4763
 3943SOL     OW11963   1.818   2.348   4.850  0.5503  0.0910 -0.1480
 3943SOL    HW111964   1.756   2.277   4.868  0.7643 -0.2163 -0.6251
 3943SOL    HW211965   1.835   2.342   4.756  0.9640  0.4581 -0.0979
 3944SOL     OW11966   3.367   4.857   3.633 -0.2704 -0.2003  0.1600
 3944SOL    HW111967   3.331   4.876   3.720 -2.2850 -1.2960 -0.3765
 3944SOL    HW211968   3.423   4.781   3.646  0.8454  0.6981  0.7741
 3945SOL     OW11969   0.271   2.111   4.131  0.2375  0.5571 -0.3707
 3945SOL    HW111970   0.274   2.032   4.185 -2.5492 -0.1700 -1.0911
 3945SOL    HW211971   0.317   2.087   4.050 -1.3385 -0.7221 -0.9487
 3946SOL     OW11972   3.542   0.597   3.582 -0.9986  0.2817 -0.2065
 3946SOL    HW111973   3.461   0.592   3.634 -0.4228  0.4445  0.7284
 3946SOL    HW211974   3.612   0.593   3.647 -0.1892 -1.8607 -1.1274
 3947SOL     OW11975   0.259   2.185   4.576  0.5460 -0.4782  0.3083
 3947SOL    HW111976   0.219   2.104   4.608 -2.0717  0.4796 -0.2683
 3947SOL    HW211977   0.221   2.197   4.489  1.4299  1.0079  0.1010
 3948SOL     OW11978   3.375   1.624   0.915  0.1360  0.0302  0.3452
 3948SOL    HW111979   3.299   1.660   0.870 -0.7943  0.7429  2.4072
 3948SOL    HW211980   3.436   1.697   0.922  1.0313 -0.5127 -1.2086
 3949SOL     OW11981   3.743   5.023   1.502 -0.4212  0.3731  0.1852
 3949SOL    HW111982   3.780   4.946   1.459  0.8763  0.0967  1.7372
 3949SOL    HW211983   3.693   4.988   1.575 -1.0410  0.9431  0.0451
 3950SOL     OW11984   2.251   0.801   1.378  0.1093 -0.7160 -0.5154
 3950SOL    HW111985   2.243   0.871   1.442  0.1087 -2.2225  1.2187
 3950SOL    HW211986   2.332   0.756   1.401  0.4746 -0.8899 -2.0312
 3951SOL     OW11987   1.994   2.238   4.290 -0.3270 -0.1116  0.6564
 3951SOL    HW111988   1.988   2.198   4.203  1.8495  0.1452  0.3217
 3951SOL    HW211989   2.019   2.329   4.273 -0.4695  0.0941  1.5277
 3952SOL     OW11990   4.164   4.140   4.971  0.5957 -0.1411 -0.2800
 3952SOL    HW111991   4.098   4.165   4.906  2.0622 -1.1235 -2.2770
 3952SOL    HW211992   4.127   4.167   5.055 -0.9473  2.1555 -1.5954
 3953SOL     OW11993   1.722   0.139   0.173  0.1405  0.3770  0.3024
 3953SOL    HW111994   1.658   0.204   0.145 -0.0537  1.0754  2.2184
 3953SOL    HW211995   1.670   0.062   0.196  0.2344  0.0540 -0.5486
 3954SOL     OW11996   4.691   0.567   2.801 -0.6588  0.0636  0.0404
 3954SOL    HW111997   4.766   0.597   2.749 -0.8970  0.0454 -0.3118
 3954SOL    HW211998   4.707   0.473   2.814 -1.3825 -0.2665 -1.3257
 3955SOL     OW11999   4.679   2.726   3.224 -0.5138  0.0413  0.1899
 3955SOL    HW112000   4.610   2.676   3.181 -0.5759  0.4565 -0.2032
 3955SOL    HW212001   4.738   2.660   3.261 -0.9611 -0.3143  0.2698
 3956SOL     OW12002   1.481   2.552   3.169  1.0889  0.1184  0.0030
 3956SOL    HW112003   1.514   2.615   3.104  2.7700  0.5456  1.2188
 3956SOL    HW212004   1.506   2.466   3.134  0.4094  0.2095 -0.7536
 3957SOL     OW12005   2.694   4.052   2.583  0.0976 -0.3308  0.8884
 3957SOL    HW112006   2.641   4.070   2.660 -1.0027 -0.4247  0.1793
 3957SOL    HW212007   2.714   3.959   2.588  1.8444  0.0586  2.1369
 3958SOL     OW12008   1.031   0.235   1.037 -0.1536 -0.3980 -0.2665
 3958SOL    HW112009   1.037   0.282   0.954 -1.7412 -0.4991 -0.4615
 3958SOL    HW212010   0.977   0.290   1.093 -0.9170 -1.3264 -0.0484
 3959SOL     OW12011   4.667   2.646   0.899  0.4965 -0.0725  0.3779
 3959SOL    HW112012   4.728   2.667   0.829 -0.1232  1.8859  0.3800
 3959SOL    HW212013   4.691   2.557   0.926  1.9905 -0.1181 -0.9935
 3960SOL     OW12014   2.174   0.425   4.851  0.7342 -0.6161 -0.5677
 3960SOL    HW112015   2.243   0.413   4.917  0.1313  2.9269  0.9981
 3960SOL    HW212016   2.127   0.342   4.849  1.3420 -1.2050  2.9156
 3961SOL     OW12017   2.725   2.195   4.382 -0.5065 -0.2970  0.2300
 3961SOL    HW112018   2.799   2.256   4.383 -0.3887 -0.3699 -1.3550
 3961SOL    HW212019   2.764   2.111   4.358 -1.1694 -0.1844 -1.3410
 3962SOL     OW12020   2.807   0.706   3.215 -0.5455  0.0321  0.4072
 3962SOL    HW112021   2.767   0.711   3.128  1.9620  2.5537 -0.7550
 3962SOL    HW212022   2.746   0.751   3.273 -0.4488  1.9824 -0.9174
 3963SOL     OW12023   2.747   4.917   1.841 -0.8832 -0.0583  0.3053
 3963SOL    HW112024   2.722   4.982   1.907 -1.0605 -1.9004  2.1828
 3963SOL    HW212025   2.838   4.896   1.861 -0.7009 -0.1090 -0.5412
 3964SOL     OW12026   1.121   3.152   4.491 -0.3123 -0.0463  0.5963
 3964SOL    HW112027   1.083   3.134   4.405  0.0775  2.3807 -0.1597
 3964SOL    HW212028   1.050   3.130   4.552 -1.1648 -0.3074 -0.4351
 3965SOL     OW12029   0.216   0.746   4.103 -0.3157 -0.4374  0.2665
 3965SOL    HW112030   0.214   0.747   4.198  2.9946  0.3187  0.4715
 3965SOL    HW212031   0.246   0.658   4.080 -2.4148 -1.0822 -0.2369
 3966SOL     OW12032   3.190   0.528   1.612 -0.0516 -0.5719 -0.1370
 3966SOL    HW112033   3.221   0.474   1.685 -2.2574  0.0707  1.3747
 3966SOL    HW212034   3.231   0.614   1.626  0.4869 -0.7838 -0.3814
 3967SOL     OW12035   3.128   4.318   2.194  0.3716  0.6723 -0.2657
 3967SOL    HW112036   3.184   4.241   2.184 -0.4229  0.1433 -0.7808
 3967SOL    HW212037   3.163   4.363   2.271  1.3695  0.2497 -0.4644
 3968SOL     OW12038   0.339   4.024   1.985  0.2719 -0.2104  0.5313
 3968SOL    HW112039   0.401   4.003   2.055 -0.5236  3.6020  2.6916
 3968SOL    HW212040   0.392   4.066   1.918  0.6096 -0.9106  0.3574
 3969SOL     OW12041   3.956   3.787   4.286 -0.5764 -0.5640  0.3446
 3969SOL    HW112042   4.016   3.860   4.300  0.7184 -1.1410 -1.7248
 3969SOL    HW212043   3.882   3.825   4.239 -0.3725 -0.3993  0.1579
 3970SOL     OW12044   1.828   1.621   3.554 -0.0279  0.5591 -0.1353
 3970SOL    HW112045   1.746   1.587   3.591 -0.1781  1.5565  0.4855
 3970SOL    HW212046   1.871   1.664   3.627  1.0272  0.1010 -0.4791
 3971SOL     OW12047   0.843   1.852   3.768  0.0692 -0.7414  0.6071
 3971SOL    HW112048   0.825   1.843   3.675  1.9674  1.0166 -0.0060
 3971SOL    HW212049   0.765   1.896   3.803  1.0608  2.7876 -1.1182
 3972SOL     OW12050   3.509   2.658   1.414 -0.3302  0.3953  0.1915
 3972SOL    HW112051   3.474   2.739   1.376  1.9838  1.0181 -0.7610
 3972SOL    HW212052   3.591   2.643   1.368 -0.4164 -2.2460  0.7274
 3973SOL     OW12053   0.394   2.115   3.185  0.4760 -0.1540 -0.9710
 3973SOL    HW112054   0.480   2.136   3.222  0.2294 -1.5925  0.5609
 3973SOL    HW212055   0.413   2.066   3.105  1.0485  0.8196 -1.4445
 3974SOL     OW12056   1.095   4.950   2.411  0.2852 -0.3770 -0.0824
 3974SOL    HW112057   1.140   5.034   2.402 -0.8444  0.2987  0.3980
 3974SOL    HW212058   1.009   4.964   2.372 -1.2099 -0.2195  2.9835
 3975SOL     OW12059   2.826   0.861   0.672 -0.1370 -0.5031 -0.1783
 3975SOL    HW112060   2.893   0.881   0.606 -1.3379  0.8980 -1.0239
 3975SOL    HW212061   2.761   0.809   0.625 -0.0397 -1.2097  0.4469
 3976SOL     OW12062   1.673   3.596   2.045  0.0885  0.3088 -0.3510
 3976SOL    HW112063   1.612   3.638   2.105  1.6353  0.8895  0.8875
 3976SOL    HW212064   1.704   3.668   1.989  0.4959  0.2383 -0.2176
 3977SOL     OW12065   4.341   0.200   3.504  0.4805  0.0156  0.5357
 3977SOL    HW112066   4.349   0.282   3.455  1.9832 -0.8770 -0.7983
 3977SOL    HW212067   4.428   0.185   3.540  0.7701 -1.9580 -0.8674
 3978SOL     OW12068   2.018   3.935   0.061 -0.0438 -0.5055  0.2822
 3978SOL    HW112069   1.925   3.951   0.046  0.0424  2.0583  1.9229
 3978SOL    HW212070   2.061   3.974  -0.015 -0.1865  1.6694  1.2558
 3979SOL     OW12071   0.167   1.076   4.827  0.0644 -0.0270  0.5738
 3979SOL    HW112072   0.235   1.080   4.760 -0.5324 -1.2324 -0.1447
 3979SOL    HW212073   0.199   1.132   4.898  0.6104  1.4531 -0.7970
 3980SOL     OW12074   1.838   0.212   2.264  0.0411 -0.0904  0.5902
 3980SOL    HW112075   1.827   0.150   2.191 -1.1347  0.5452  0.2065
 3980SOL    HW212076   1.854   0.156   2.340  0.2043 -0.8153  0.0463
 3981SOL     OW12077   2.971   2.957   3.802  0.6287 -0.1546 -0.0855
 3981SOL    HW112078   3.063   2.983   3.803  0.7347 -0.5127 -0.2794
 3981SOL    HW212079   2.927   3.029   3.757  0.5112  0.9305  1.6771
 3982SOL     OW12080   2.731   3.260   2.994 -0.2440 -0.2202 -0.7761
 3982SOL    HW112081   2.813   3.292   2.955  0.9446 -0.9014  1.0599
 3982SOL    HW212082   2.724   3.170   2.964 -1.2793  0.3254 -2.3276
 3983SOL     OW12083   0.280   1.291   2.420  0.5563  0.1017  0.1571
 3983SOL    HW112084   0.189   1.293   2.390  0.4906 -0.4963  0.2977
 3983SOL    HW212085   0.283   1.353   2.493  0.0694 -0.4482  0.6608
 3984SOL     OW12086   4.608   3.086   3.331  0.4976  0.1730  0.3072
 3984SOL    HW112087   4.541   3.029   3.294 -0.0797  0.7462  0.4604
 3984SOL    HW212088   4.606   3.068   3.425  1.0318 -0.2945  0.2397
 3985SOL     OW12089   4.718   2.695   0.319 -0.1120 -0.0308  0.2261
 3985SOL    HW112090   4.705   2.640   0.397 -1.9177  0.4801  0.3156
 3985SOL    HW212091   4.739   2.633   0.249 -0.3041 -0.6565  0.7125
 3986SOL     OW12092   0.279   1.365   3.339  0.3112  0.6191  0.1743
 3986SOL    HW112093   0.343   1.435   3.327 -0.0297  1.2091  1.5397
 3986SOL    HW212094   0.194   1.411   3.338  0.0719  0.1951  0.8623
 3987K        K12095   1.455   1.810   4.517 -0.1575  0.0942 -0.0863
 3988K        K12096   3.845   3.277   1.785  0.1925 -0.3572 -0.0501
 3989K        K12097   1.104   3.773   1.527 -0.1321  0.1931  0.4127
 3990K        K12098   1.523   1.545   4.958 -0.0017  0.0715 -0.1481
 3991K        K12099   2.482   3.847   2.819 -0.0551  0.3570 -0.2648
 3992K        K12100   3.414   2.594   3.480 -0.0963 -0.2073 -0.5199
 3993K        K12101   1.654   3.338   2.029 -0.1356 -0.0775 -0.7637
 3994K        K12102   2.707   4.296   2.468  0.2034  0.2473  0.0879
 3995K        K12103   3.019   0.128   2.986  0.1152  0.1291  0.4058
 3996K        K12104   1.571   4.330   0.981  0.1897  0.2637 -0.3962
 3997K        K12105   0.782   1.369   0.552 -0.2719 -0.3406 -0.1223
 3998K        K12106   0.626   1.773   0.303  0.0659  0.0593 -0.2549
 3999K        K12107   0.913   1.929   0.545  0.0490 -0.1850 -0.1580
 4000CL      CL12108   4.997   1.524   0.727  0.6115  0.1311 -0.1261
 4001CL      CL12109   2.522   4.144   2.827  0.0781 -0.3461 -0.3929
 4002CL      CL12110   0.808   1.656   0.490  0.0143 -0.1035 -0.0288
 4003CL      CL12111   3.742   2.545   1.096 -0.3184  0.0279 -0.0854
 4004CL      CL12112   1.924   3.270   3.446  0.0656  0.4650 -0.4028
 4005CL      CL12113   1.717   1.760   0.005  0.4578 -0.4504 -0.2760
 4006CL      CL12114   3.810   3.105   2.034  0.2932  0.8821  0.1868
 4007CL      CL12115   0.569   3.138   1.069  0.3565 -0.0277  0.1189
 4008CL      CL12116   2.918   4.485   2.513 -0.1296 -0.1625  0.7307
 4009CL      CL12117   4.403   3.732   3.822 -0.0231 -0.2131 -0.0433
 4010CL      CL12118   1.351   1.632   4.746 -0.2671  0.3095  0.5417
   5.00000   5.00000   5.00000
