CLN025
12118
    1TYR      N    1   2.576   1.416   4.705 -0.3283 -0.0723 -0.8397
    1TYR     H1    2   2.672   1.402   4.675 -0.2208 -1.7508  0.1650
    1TYR     H2    3   2.539   1.323   4.720 -1.1469 -0.0311 -2.4165
    1TYR     H3    4   2.534   1.462   4.626 -0.0344  0.7007 -0.5523
    1TYR     CA    5   2.567   1.511   4.820 -0.2490 -0.7355  0.1779
    1TYR     HA    6   2.584   1.607   4.772 -1.6163  0.0648  1.2159
    1TYR     CB    7   2.428   1.510   4.887  0.4655 -0.2688  0.2729
    1TYR    HB1    8   2.359   1.533   4.806  2.0019 -1.1157 -1.3238
    1TYR    HB2    9   2.422   1.592   4.959  2.2900 -1.1584  1.5260
    1TYR     CG   10   2.390   1.384   4.963 -1.0254 -0.1308 -0.3499
    1TYR    CD1   11   2.421   1.366   5.104  0.7475 -0.0063 -0.2729
    1TYR    HD1   12   2.503   1.426   5.142  1.1422  0.5867 -1.9707
    1TYR    CE1   13   2.381   1.247   5.165 -0.0572 -0.0892  0.3564
    1TYR    HE1   14   2.410   1.220   5.265  1.8022 -4.0640 -1.0393
    1TYR     CZ   15   2.299   1.153   5.095 -0.4191 -0.2386  0.3550
    1TYR     OH   16   2.259   1.046   5.165  0.4755  0.7453  0.1751
    1TYR     HH   17   2.184   1.003   5.124  0.0566  2.0250 -0.4715
    1TYR    CE2   18   2.256   1.178   4.966 -0.3754 -0.3700  0.2348
    1TYR    HE2   19   2.197   1.104   4.914  1.7966 -0.8171 -1.7651
    1TYR    CD2   20   2.303   1.291   4.898  0.0021 -0.3526  0.6533
    1TYR    HD2   21   2.273   1.303   4.795  0.5663 -1.1833  0.3818
    1TYR      C   22   2.677   1.484   4.925 -0.4897 -0.5484 -0.3558
    1TYR      O   23   2.721   1.378   4.940 -0.2976 -0.2405 -0.0734
    2TYR      N   24   2.713   1.591   4.995 -0.4150  0.5998 -0.2507
    2TYR      H   25   2.671   1.678   4.967 -0.7629  0.2348 -0.8776
    2TYR     CA   26   2.807   1.584   5.111  0.2690 -0.1411 -0.5839
    2TYR     HA   27   2.857   1.487   5.109  2.1540  0.6858  1.7262
    2TYR     CB   28   2.914   1.693   5.099 -0.0931  0.1892 -0.5964
    2TYR    HB1   29   2.856   1.784   5.083 -2.8837 -1.5378 -0.7997
    2TYR    HB2   30   2.984   1.679   5.016  0.7590 -0.1241  0.1578
    2TYR     CG   31   2.996   1.712   5.225  0.0262 -0.2387  0.2579
    2TYR    CD1   32   3.102   1.619   5.246 -0.0160  0.3728  0.1581
    2TYR    HD1   33   3.112   1.530   5.186 -0.6706 -1.4445  2.5904
    2TYR    CE1   34   3.190   1.626   5.353  0.6446 -0.6113  0.6094
    2TYR    HE1   35   3.266   1.551   5.368  3.2123  1.9536  1.2552
    2TYR     CZ   36   3.169   1.727   5.447  0.5914 -0.0952 -0.8280
    2TYR     OH   37   3.237   1.737   5.560 -0.1135  0.8087 -0.0942
    2TYR     HH   38   3.216   1.818   5.607 -2.3606 -0.6504  1.6326
    2TYR    CE2   39   3.071   1.825   5.425  0.2556 -1.0262  0.4235
    2TYR    HE2   40   3.055   1.906   5.494  0.6894  0.4578 -1.1619
    2TYR    CD2   41   2.979   1.817   5.317 -0.0887 -0.9830 -0.5766
    2TYR    HD2   42   2.910   1.897   5.298 -0.5133 -1.1929  0.0621
    2TYR      C   43   2.736   1.612   5.239 -0.7979 -0.4604 -0.2251
    2TYR      O   44   2.657   1.706   5.257 -0.4364 -0.3438  0.8060
    3ASP      N   45   2.769   1.530   5.335 -1.0645  0.3535 -0.9480
    3ASP      H   46   2.841   1.463   5.313 -2.8826 -2.0283 -0.0230
    3ASP     CA   47   2.706   1.526   5.465 -0.7242  0.9009  0.0024
    3ASP     HA   48   2.623   1.598   5.470 -0.3465  1.3567 -0.2455
    3ASP     CB   49   2.641   1.390   5.497 -1.0383 -0.0202  0.3692
    3ASP    HB1   50   2.717   1.312   5.490  0.5307  1.5399 -0.6761
    3ASP    HB2   51   2.554   1.368   5.435 -2.4272  2.3107  1.3482
    3ASP     CG   52   2.582   1.382   5.641  0.3757  0.2585 -0.1523
    3ASP    OD1   53   2.518   1.474   5.689  0.0965  0.2007 -0.3324
    3ASP    OD2   54   2.599   1.278   5.708  0.3539 -0.8346  0.7667
    3ASP      C   55   2.813   1.557   5.574 -0.7973 -0.4405 -0.0799
    3ASP      O   56   2.903   1.478   5.596 -0.2964  0.5489 -1.3012
    4PRO      N   57   2.799   1.671   5.651  0.0729  0.2705  0.2049
    4PRO     CD   58   2.688   1.759   5.640  0.4505  1.4020 -0.9138
    4PRO    HD1   59   2.590   1.713   5.640  0.8517  0.4948 -1.9929
    4PRO    HD2   60   2.703   1.820   5.551 -0.2819 -1.9385 -3.4871
    4PRO     CG   61   2.697   1.852   5.764 -0.3577 -0.0617  0.2466
    4PRO    HG1   62   2.641   1.813   5.849 -0.2137  1.7913  1.2556
    4PRO    HG2   63   2.660   1.951   5.738 -1.7433 -0.6305 -0.0394
    4PRO     CB   64   2.846   1.863   5.789  0.2115 -0.3185  0.1945
    4PRO    HB1   65   2.868   1.897   5.891 -1.5251  0.8139  0.2458
    4PRO    HB2   66   2.889   1.930   5.715 -1.2971 -0.4593 -0.8601
    4PRO     CA   67   2.890   1.716   5.759  0.0634  0.4097  0.8067
    4PRO     HA   68   2.995   1.717   5.727 -0.2618 -1.1363 -0.4212
    4PRO      C   69   2.877   1.624   5.885 -0.4996  0.6410  0.9077
    4PRO      O   70   2.962   1.643   5.976 -0.5870  0.1422 -0.0078
    5GLU      N   71   2.786   1.532   5.898 -0.5283 -0.1591  0.6618
    5GLU      H   72   2.730   1.507   5.819  0.8478 -1.3775  0.0344
    5GLU     CA   73   2.776   1.436   6.009 -0.2257  0.4290  0.2246
    5GLU     HA   74   2.814   1.480   6.102 -0.5445  2.2533 -0.4548
    5GLU     CB   75   2.630   1.404   6.030  0.3436 -0.3172 -0.2168
    5GLU    HB1   76   2.626   1.343   6.121 -1.1296  0.3562  0.1990
    5GLU    HB2   77   2.576   1.352   5.951  0.6304 -0.0576 -0.5856
    5GLU     CG   78   2.542   1.531   6.076 -0.1423  1.5052  0.5911
    5GLU    HG1   79   2.440   1.496   6.092  0.4862 -0.0321  1.4309
    5GLU    HG2   80   2.550   1.607   5.998 -0.4857  1.4298  0.4794
    5GLU     CD   81   2.588   1.587   6.204 -0.1154  0.3291  0.0062
    5GLU    OE1   82   2.633   1.506   6.290  0.2946 -0.1487  0.5046
    5GLU    OE2   83   2.557   1.710   6.234 -0.8679 -0.3616  0.1111
    5GLU      C   84   2.861   1.315   5.985  1.1951  0.3111 -0.1333
    5GLU      O   85   2.931   1.269   6.076  0.2928 -0.2574 -0.0613
    6THR      N   86   2.862   1.250   5.870  0.7475 -0.1918 -0.6158
    6THR      H   87   2.782   1.272   5.811  1.2528  1.0721 -0.8673
    6THR     CA   88   2.956   1.144   5.830 -0.1256 -0.7767  0.2351
    6THR     HA   89   2.985   1.083   5.916  1.3629  0.9224  0.9788
    6THR     CB   90   2.902   1.047   5.728 -0.5635  0.1550 -0.7214
    6THR     HB   91   2.979   0.997   5.670 -1.0064  1.4043 -2.4898
    6THR    CG2   92   2.807   0.940   5.785  0.5784  0.2022  0.3020
    6THR   HG21   93   2.755   0.984   5.870  2.2569  1.3362  0.8053
    6THR   HG22   94   2.732   0.916   5.710 -0.7139 -0.3814  1.7250
    6THR   HG23   95   2.846   0.845   5.820  0.3159  1.1275  3.4530
    6THR    OG1   96   2.823   1.122   5.634 -0.7177 -0.2446  0.1990
    6THR    HG1   97   2.737   1.154   5.664 -0.8327 -0.2592 -0.1095
    6THR      C   98   3.094   1.202   5.780  0.5401 -0.3268 -0.1332
    6THR      O   99   3.195   1.133   5.786 -0.3494  0.6934 -0.2423
    7GLY      N  100   3.099   1.323   5.733 -0.2749 -0.1215  0.1789
    7GLY      H  101   3.010   1.369   5.724 -0.3904 -0.3299  0.2480
    7GLY     CA  102   3.204   1.391   5.661  0.5112 -0.0733  0.7870
    7GLY    HA1  103   3.291   1.401   5.724  1.6352  1.5478 -0.9110
    7GLY    HA2  104   3.158   1.489   5.642  1.3708  0.7063  2.5978
    7GLY      C  105   3.233   1.321   5.523  0.2720 -0.9077 -0.5085
    7GLY      O  106   3.350   1.315   5.490  0.2644 -0.6865  0.7752
    8THR      N  107   3.134   1.267   5.453 -0.1980  0.7533 -0.0827
    8THR      H  108   3.040   1.293   5.480  0.7294  3.3639  0.9683
    8THR     CA  109   3.158   1.180   5.334  0.6091 -0.3105 -0.7763
    8THR     HA  110   3.258   1.205   5.297  2.2350 -0.9626  2.7832
    8THR     CB  111   3.152   1.028   5.358 -0.3249  0.6483  0.0303
    8THR     HB  112   3.150   0.984   5.258  3.2865  1.1845 -0.4122
    8THR    CG2  113   3.279   0.982   5.441  0.5529  0.5934 -0.5505
    8THR   HG21  114   3.256   0.879   5.467 -3.4435  1.5226  0.1378
    8THR   HG22  115   3.367   0.956   5.381 -0.7443 -1.0348 -1.8347
    8THR   HG23  116   3.299   1.046   5.526  1.1411  1.2459 -1.1572
    8THR    OG1  117   3.033   0.983   5.431 -0.1479 -0.1398  0.4822
    8THR    HG1  118   2.995   1.066   5.461  1.2347  0.0976  1.6485
    8THR      C  119   3.063   1.219   5.218 -0.5362  0.4332 -0.0940
    8THR      O  120   2.967   1.292   5.239 -0.5222 -0.1809 -0.1900
    9TRP      N  121   3.099   1.180   5.094 -0.6073 -0.3536  0.4982
    9TRP      H  122   3.187   1.134   5.075 -1.4116 -0.6947 -2.8769
    9TRP     CA  123   3.011   1.194   4.979  0.0996  1.1469 -0.1932
    9TRP     HA  124   2.942   1.275   4.999 -0.3445  0.5460  0.7615
    9TRP     CB  125   3.096   1.239   4.858  0.3069 -0.0348  0.3376
    9TRP    HB1  126   3.034   1.265   4.772  3.0196  1.7697 -1.2188
    9TRP    HB2  127   3.161   1.158   4.824  1.2244  1.0101 -0.4610
    9TRP     CG  128   3.193   1.346   4.870  0.8491 -0.5162 -0.6314
    9TRP    CD1  129   3.321   1.345   4.906  0.5935  0.0839 -0.4433
    9TRP    HD1  130   3.371   1.260   4.949 -1.6017  0.0276  2.2290
    9TRP    NE1  131   3.366   1.477   4.898 -0.5464  0.0980  0.0680
    9TRP    HE1  132   3.458   1.497   4.933 -0.5812  0.0792  0.1718
    9TRP    CE2  133   3.276   1.563   4.844  0.6736  0.1901  0.7019
    9TRP    CZ2  134   3.265   1.702   4.822 -0.7854  0.6405  0.0441
    9TRP    HZ2  135   3.343   1.763   4.867  0.3206 -0.2871 -0.5481
    9TRP    CH2  136   3.147   1.748   4.765 -0.1922 -0.6651 -0.4293
    9TRP    HH2  137   3.138   1.855   4.750 -2.8265 -0.5362  1.4622
    9TRP    CZ3  138   3.030   1.672   4.751 -0.5685 -0.3697  0.4032
    9TRP    HZ3  139   2.940   1.721   4.716 -0.4985  0.6615  1.5680
    9TRP    CE3  140   3.037   1.535   4.782  0.5399 -0.1302  0.2368
    9TRP    HE3  141   2.951   1.471   4.775  0.4445  0.0455 -0.2857
    9TRP    CD2  142   3.162   1.480   4.827  1.1267 -0.5192 -0.8039
    9TRP      C  143   2.926   1.074   4.945  0.4877  0.8367 -0.2139
    9TRP      O  144   2.958   0.957   4.984 -0.2025  0.0876  0.4467
   10TYR      N  145   2.818   1.105   4.873 -0.0312 -0.1902  0.3517
   10TYR      H  146   2.804   1.203   4.852 -2.4909 -0.5303  0.0651
   10TYR     CA  147   2.709   1.013   4.834 -0.1765  0.2890 -0.8226
   10TYR     HA  148   2.734   0.910   4.860 -1.3111 -0.1635 -1.4780
   10TYR     CB  149   2.585   1.037   4.926 -0.6331 -0.9986  0.2581
   10TYR    HB1  150   2.505   0.975   4.885 -3.0212  2.3015 -0.4604
   10TYR    HB2  151   2.546   1.138   4.916 -0.9783 -1.1150  0.4085
   10TYR     CG  152   2.603   1.015   5.075 -0.6721  0.0654 -0.4121
   10TYR    CD1  153   2.538   0.903   5.132  0.4438  0.3290 -0.5505
   10TYR    HD1  154   2.459   0.849   5.081 -0.0237  1.1893 -0.7493
   10TYR    CE1  155   2.548   0.872   5.272  0.0911  0.0332  0.0207
   10TYR    HE1  156   2.498   0.789   5.319  0.9121 -0.2838  0.3524
   10TYR     CZ  157   2.631   0.963   5.349  0.2203 -0.3695  0.7142
   10TYR     OH  158   2.652   0.937   5.480  0.7580 -0.5215  0.4506
   10TYR     HH  159   2.715   0.999   5.517  0.2668  1.0297 -1.1776
   10TYR    CE2  160   2.696   1.068   5.292  0.3042 -0.1963 -0.8412
   10TYR    HE2  161   2.761   1.134   5.348  0.1614 -0.3192 -0.5295
   10TYR    CD2  162   2.676   1.098   5.159 -0.0875  0.1259  0.2875
   10TYR    HD2  163   2.726   1.184   5.118  0.5382  0.4816  1.7142
   10TYR      C  164   2.670   1.014   4.683  0.2668 -0.2077 -0.2644
   10TYR    OC1  165   2.641   1.127   4.634 -0.2195  0.1660  0.2570
   10TYR    OC2  166   2.671   0.911   4.609 -0.4539  0.6238  0.4623
   11SOL     OW  167   1.003   4.564   2.969 -0.3203 -0.2596 -0.1492
   11SOL    HW1  168   1.023   4.618   2.892  0.2715 -1.6620 -1.0229
   11SOL    HW2  169   0.915   4.530   2.952  0.8311 -2.7539 -1.6012
   12SOL     OW  170   0.375   4.269   3.050 -0.8257 -0.7150  0.6551
   12SOL    HW1  171   0.358   4.354   3.092 -0.7779  0.1781 -1.0419
   12SOL    HW2  172   0.458   4.239   3.089 -0.1322  0.6807  0.3261
   13SOL     OW  173   4.331   4.329   2.192  0.0551  0.2982 -0.5609
   13SOL    HW1  174   4.291   4.411   2.222 -1.5807 -0.7892  0.3806
   13SOL    HW2  175   4.413   4.323   2.240 -1.7350 -0.6002  2.6798
   14SOL     OW  176   0.290   0.032   4.628  0.0096  0.1909 -0.3083
   14SOL    HW1  177   0.334   0.028   4.713  0.6563  0.4880 -0.6250
   14SOL    HW2  178   0.344  -0.023   4.571  0.2573  0.9590 -0.8254
   15SOL     OW  179   4.297   4.628   2.236  0.0731 -0.3515  0.8436
   15SOL    HW1  180   4.231   4.665   2.177 -0.3711 -1.6783  0.4561
   15SOL    HW2  181   4.377   4.677   2.217 -0.8058  1.3725  1.4041
   16SOL     OW  182   2.540   1.973   4.184 -0.5383  0.3893 -0.1000
   16SOL    HW1  183   2.593   2.014   4.115  1.9826  0.3469  1.6601
   16SOL    HW2  184   2.528   1.882   4.154  0.4525  0.3913 -0.5384
   17SOL     OW  185   3.923   3.194   2.104  0.3828  0.2953 -0.4068
   17SOL    HW1  186   3.905   3.172   2.012  0.3139 -1.2695 -0.0397
   17SOL    HW2  187   4.004   3.245   2.100 -0.7825  2.1494 -1.5104
   18SOL     OW  188   3.196   5.007   2.323 -0.0871  0.1572 -0.0697
   18SOL    HW1  189   3.110   4.983   2.289  0.3879  0.6812 -1.7430
   18SOL    HW2  190   3.223   4.931   2.375  0.0037 -1.6953 -2.6068
   19SOL     OW  191   1.734   1.424   1.933  1.0085 -0.1682 -0.5202
   19SOL    HW1  192   1.699   1.389   1.851  1.0423  0.8503 -0.9857
   19SOL    HW2  193   1.802   1.362   1.958 -0.2964 -1.5378 -0.2326
   20SOL     OW  194   4.643   3.250   0.876  0.1369 -0.3399 -0.1825
   20SOL    HW1  195   4.685   3.172   0.840  1.3772 -0.0203  0.4695
   20SOL    HW2  196   4.549   3.235   0.867  0.3511 -1.9798  0.0680
   21SOL     OW  197   0.514   3.923   1.670  0.2423  0.6417  0.2891
   21SOL    HW1  198   0.546   3.981   1.740  1.9161 -1.0772  1.0473
   21SOL    HW2  199   0.446   3.870   1.712 -0.0385  0.8382  0.0883
   22SOL     OW  200   2.038   3.677   2.141  0.0462 -0.5284 -0.1252
   22SOL    HW1  201   2.018   3.633   2.059 -1.2296 -0.0937 -0.0566
   22SOL    HW2  202   2.048   3.769   2.118 -0.4624 -0.3827  0.2252
   23SOL     OW  203   3.490   1.547   2.420 -0.2948 -0.1103 -0.6023
   23SOL    HW1  204   3.559   1.573   2.360  0.3196  1.0417  0.5577
   23SOL    HW2  205   3.409   1.579   2.380  0.1213  0.7894 -0.7322
   24SOL     OW  206   1.384   0.370   0.562  0.7726 -0.0826  0.2327
   24SOL    HW1  207   1.469   0.414   0.556  0.3219  1.1149  1.8406
   24SOL    HW2  208   1.325   0.425   0.509  0.3268  1.0252  1.8044
   25SOL     OW  209   0.405   2.067   1.303 -0.2983  0.3454 -0.4370
   25SOL    HW1  210   0.391   2.154   1.340 -3.3816 -0.8819  1.6617
   25SOL    HW2  211   0.433   2.013   1.377 -0.2927 -0.8336 -1.2670
   26SOL     OW  212   1.276   2.730   2.584  0.6522 -0.1446 -0.5776
   26SOL    HW1  213   1.254   2.800   2.647  0.3185  1.3412 -2.2541
   26SOL    HW2  214   1.351   2.765   2.535 -0.5827 -0.1643 -2.5959
   27SOL     OW  215   3.626   3.916   2.993 -0.1522 -0.2653 -0.1084
   27SOL    HW1  216   3.602   3.900   3.085  1.2742 -0.2183  0.3041
   27SOL    HW2  217   3.650   3.829   2.960 -2.0791 -0.5345 -0.9108
   28SOL     OW  218   2.277   0.254   3.060  0.1595 -0.1288  0.7714
   28SOL    HW1  219   2.306   0.185   3.120 -2.3015 -1.2561  0.7932
   28SOL    HW2  220   2.224   0.208   2.994  0.4590  1.4565 -0.6504
   29SOL     OW  221   0.012   3.834   1.339 -0.1656  0.2782 -0.4437
   29SOL    HW1  222   0.076   3.878   1.395  0.4080 -1.8265  0.6484
   29SOL    HW2  223  -0.071   3.845   1.384  0.1266 -0.5149  0.3040
   30SOL     OW  224   4.277   1.977   3.282  0.1954  0.2226 -0.0109
   30SOL    HW1  225   4.210   1.909   3.284  0.7296 -0.2880  1.0421
   30SOL    HW2  226   4.356   1.935   3.318  0.6861  1.2245  0.1255
   31SOL     OW  227   1.465   1.347   4.681 -0.4460 -0.5708  0.2091
   31SOL    HW1  228   1.482   1.392   4.763  0.2897 -2.4885  1.1921
   31SOL    HW2  229   1.384   1.385   4.648 -0.1004  1.0916  1.1832
   32SOL     OW  230   1.837   2.682   2.157 -0.5418  0.0946 -0.1957
   32SOL    HW1  231   1.799   2.605   2.116  0.6494 -1.0902  0.8411
   32SOL    HW2  232   1.930   2.662   2.167 -0.0156  2.0291 -0.6834
   33SOL     OW  233   3.531   1.377   3.639 -0.2120  0.0022  0.3696
   33SOL    HW1  234   3.572   1.306   3.590 -0.5908 -0.5473  0.8413
   33SOL    HW2  235   3.478   1.333   3.705 -0.4611  0.7255  0.6570
   34SOL     OW  236   4.801   2.239   1.524 -0.2408 -0.1778 -1.1703
   34SOL    HW1  237   4.882   2.232   1.473  0.4803  0.1821 -0.1271
   34SOL    HW2  238   4.814   2.178   1.597 -1.1321 -0.4947 -1.2749
   35SOL     OW  239   0.819   4.703   1.294 -0.3419 -0.2944  0.0113
   35SOL    HW1  240   0.774   4.663   1.368  2.2148  1.0149  2.4248
   35SOL    HW2  241   0.748   4.726   1.233 -2.7690  0.1380  2.7810
   36SOL     OW  242   3.614   4.499   4.701  0.1825 -0.4004  0.1983
   36SOL    HW1  243   3.572   4.478   4.618  1.0993 -1.8055  0.0594
   36SOL    HW2  244   3.640   4.591   4.692 -1.0559 -0.0947 -0.4647
   37SOL     OW  245   4.762   3.045   1.340  0.2023 -0.4650 -0.1791
   37SOL    HW1  246   4.764   3.117   1.277 -0.5215  0.4240  0.7772
   37SOL    HW2  247   4.845   3.052   1.387 -0.8955  1.4294  1.6674
   38SOL     OW  248   1.297   0.573   0.359 -0.6264 -0.0089 -0.1670
   38SOL    HW1  249   1.368   0.636   0.370 -0.1043 -0.5321 -0.4784
   38SOL    HW2  250   1.224   0.625   0.325 -0.2671  0.4608 -0.2374
   39SOL     OW  251   3.813   2.194   4.551  0.1499 -0.3682 -0.6478
   39SOL    HW1  252   3.885   2.255   4.570  1.4874 -2.4966  1.8954
   39SOL    HW2  253   3.783   2.165   4.638 -1.5328 -2.0837 -1.7128
   40SOL     OW  254   0.584   1.180   4.549 -0.1114  0.2181  0.2248
   40SOL    HW1  255   0.546   1.256   4.593 -1.5086 -1.6012  2.3771
   40SOL    HW2  256   0.654   1.152   4.607  0.4738 -0.0882 -0.6170
   41SOL     OW  257   1.656   4.283   1.637  0.3489  0.9394  0.4759
   41SOL    HW1  258   1.672   4.368   1.678  4.5441 -0.0439  1.4066
   41SOL    HW2  259   1.561   4.276   1.631 -0.4010  3.5937  4.9178
   42SOL     OW  260   2.967   2.803   4.383  0.5874 -0.1440  0.3742
   42SOL    HW1  261   2.938   2.803   4.474  0.7777 -2.5156  0.4936
   42SOL    HW2  262   3.037   2.868   4.380  0.1838  0.3856  1.7666
   43SOL     OW  263   3.655   0.623   3.387 -0.3748  0.0602  0.0868
   43SOL    HW1  264   3.667   0.538   3.429  0.1916 -0.9542 -1.9745
   43SOL    HW2  265   3.680   0.608   3.296 -0.7080  2.3402 -0.4391
   44SOL     OW  266   3.873   3.522   3.464  0.3159 -0.1106  0.5800
   44SOL    HW1  267   3.829   3.461   3.405 -1.8031  1.0148  0.8914
   44SOL    HW2  268   3.954   3.478   3.488 -1.1372 -2.8596  0.8936
   45SOL     OW  269   2.920   4.773   1.376  0.7980 -0.0523  0.4398
   45SOL    HW1  270   2.933   4.791   1.283 -2.0117  1.5184  0.2294
   45SOL    HW2  271   2.991   4.821   1.420  1.7515 -0.2496 -0.8363
   46SOL     OW  272   2.793   3.687   0.154 -0.2514  0.2774  0.2991
   46SOL    HW1  273   2.733   3.738   0.208 -0.1585  0.4650  0.2284
   46SOL    HW2  274   2.746   3.673   0.071  1.1836  3.7910 -1.3254
   47SOL     OW  275   0.790   1.944   1.010 -0.1031 -0.7656  0.2832
   47SOL    HW1  276   0.851   1.897   1.066  2.2417  1.1830 -0.4688
   47SOL    HW2  277   0.773   1.885   0.937 -0.3270 -1.8924  1.2073
   48SOL     OW  278   2.795   1.389   2.529 -0.2961  0.0003  0.0753
   48SOL    HW1  279   2.869   1.329   2.538 -1.2893 -1.1459  0.8834
   48SOL    HW2  280   2.762   1.401   2.618  1.7546  4.3265  0.5429
   49SOL     OW  281   0.192   4.108   4.094 -0.3464  0.5619 -0.7553
   49SOL    HW1  282   0.135   4.054   4.040  0.0095  0.6935 -1.2826
   49SOL    HW2  283   0.192   4.194   4.051  0.4820  0.4790 -0.9517
   50SOL     OW  284   3.878   2.295   3.889  0.2500  0.5434 -0.0510
   50SOL    HW1  285   3.877   2.319   3.797  0.0016 -1.3798 -0.5871
   50SOL    HW2  286   3.968   2.268   3.906  0.3449  1.0822  0.3441
   51SOL     OW  287   2.784   2.269   0.086 -0.1956 -0.6344 -0.3220
   51SOL    HW1  288   2.866   2.228   0.114 -0.2221 -0.1691  0.4525
   51SOL    HW2  289   2.776   2.348   0.140 -0.8793 -0.3800 -0.7732
   52SOL     OW  290   1.467   0.980   2.238  0.1914  0.4579 -0.5800
   52SOL    HW1  291   1.463   1.075   2.227 -0.1743  0.6866  1.1232
   52SOL    HW2  292   1.560   0.960   2.236  0.2878  0.9010 -0.6850
   53SOL     OW  293   0.717   0.883   4.404  0.0167  0.8217 -0.4127
   53SOL    HW1  294   0.664   0.813   4.442  1.7837 -0.0777  0.5432
   53SOL    HW2  295   0.740   0.851   4.317  1.0006  0.0578  0.1015
   54SOL     OW  296   2.172   4.443   1.651 -0.0825 -0.0963 -0.0735
   54SOL    HW1  297   2.152   4.350   1.639 -1.7941  0.4251 -1.6291
   54SOL    HW2  298   2.205   4.472   1.566 -0.2877  0.8898  0.1752
   55SOL     OW  299   4.706   0.758   4.303  0.2207 -0.1387  0.2335
   55SOL    HW1  300   4.742   0.670   4.295  0.6867  0.1626 -1.5505
   55SOL    HW2  301   4.641   0.763   4.232  0.6573  1.1364 -0.1001
   56SOL     OW  302   0.390   0.471   4.854 -0.1032  0.4728 -0.3402
   56SOL    HW1  303   0.448   0.545   4.873  0.6619  0.6099 -2.8535
   56SOL    HW2  304   0.302   0.507   4.863  0.1818  0.8679  1.2954
   57SOL     OW  305   2.757   3.841   1.564  1.1155  1.2068  0.1753
   57SOL    HW1  306   2.755   3.759   1.614 -1.0842  0.6645 -0.6820
   57SOL    HW2  307   2.849   3.868   1.566  1.2649  0.9419  3.9644
   58SOL     OW  308   0.283   3.388   3.990  0.1707 -0.8431 -0.2335
   58SOL    HW1  309   0.224   3.313   3.982  2.1494 -2.4535 -0.5478
   58SOL    HW2  310   0.293   3.421   3.901  0.9527 -1.5821 -0.4321
   59SOL     OW  311   1.499   4.428   2.657 -0.5095  0.4397 -0.1836
   59SOL    HW1  312   1.489   4.343   2.613  1.1279 -0.4748  1.1081
   59SOL    HW2  313   1.443   4.487   2.607 -1.1005 -1.2205 -1.5944
   60SOL     OW  314   1.108   0.851   0.455 -0.3024 -0.2722 -0.0268
   60SOL    HW1  315   1.023   0.896   0.456 -0.4547 -0.5426 -0.4927
   60SOL    HW2  316   1.096   0.778   0.516 -0.0986  0.2275  0.6242
   61SOL     OW  317   0.925   3.222   2.886 -0.0391  0.1264  0.0243
   61SOL    HW1  318   0.882   3.293   2.839  1.5813  0.8747 -0.4177
   61SOL    HW2  319   0.959   3.164   2.817 -1.2409 -1.0368  0.3768
   62SOL     OW  320   3.568   0.276   4.703 -0.0782 -0.1361  0.1288
   62SOL    HW1  321   3.517   0.204   4.738  2.9039 -1.3712  2.3693
   62SOL    HW2  322   3.532   0.354   4.745 -1.1678 -0.7158  0.3065
   63SOL     OW  323   1.765   3.232   2.837  0.3171  0.4393 -0.3275
   63SOL    HW1  324   1.829   3.291   2.798  2.4529 -1.3231  0.3292
   63SOL    HW2  325   1.719   3.195   2.762  2.1881 -0.5154 -1.0660
   64SOL     OW  326   1.714   3.923   0.445  0.6616  0.0131 -0.2435
   64SOL    HW1  327   1.725   4.018   0.445  0.7638  0.0015 -0.1829
   64SOL    HW2  328   1.622   3.909   0.464  0.5961  0.1069 -0.4871
   65SOL     OW  329   2.665   0.294   4.522  0.3805 -0.6043 -0.1553
   65SOL    HW1  330   2.665   0.385   4.492 -0.8535 -0.4827  0.1290
   65SOL    HW2  331   2.696   0.299   4.612  0.9713 -0.5609 -0.3555
   66SOL     OW  332   2.220   0.145   4.134  0.0713  0.3752  0.5813
   66SOL    HW1  333   2.129   0.173   4.141 -0.0555  0.0739  0.1509
   66SOL    HW2  334   2.263   0.185   4.210 -0.8612 -1.3125  2.0787
   67SOL     OW  335   0.699   0.290   1.504  0.5610 -0.2903  0.8862
   67SOL    HW1  336   0.778   0.249   1.469  0.4921 -0.1426  0.5557
   67SOL    HW2  337   0.640   0.217   1.522  0.3634 -0.3235  0.1183
   68SOL     OW  338   2.392   1.796   2.853 -0.1169  0.4963 -0.3119
   68SOL    HW1  339   2.319   1.788   2.915  0.2856 -0.4330  0.0534
   68SOL    HW2  340   2.465   1.829   2.905 -0.1593  1.0601 -0.5979
   69SOL     OW  341   0.116   4.689   1.956  0.6281  0.2570 -0.2372
   69SOL    HW1  342   0.029   4.651   1.945  0.4621 -0.1234  1.9486
   69SOL    HW2  343   0.157   4.637   2.024  3.1736 -0.4795 -2.1724
   70SOL     OW  344   4.812   4.339   3.011 -0.4895  0.7703  0.6903
   70SOL    HW1  345   4.756   4.293   2.948 -0.2826 -0.3467  1.2987
   70SOL    HW2  346   4.802   4.290   3.092 -1.5131  2.7634  1.8249
   71SOL     OW  347   0.185   4.627   4.355 -0.5664 -0.1987  0.3164
   71SOL    HW1  348   0.098   4.586   4.351 -0.2853 -0.7554 -0.2649
   71SOL    HW2  349   0.208   4.643   4.263 -0.7768  1.5412  0.5220
   72SOL     OW  350   4.582   1.929   2.565 -0.1006 -0.0609  0.2416
   72SOL    HW1  351   4.626   1.964   2.642  0.1291 -1.7628  0.9279
   72SOL    HW2  352   4.489   1.924   2.590  0.1318 -1.7088  0.8794
   73SOL     OW  353   1.796   1.875   0.205  0.3501 -0.1518 -0.0879
   73SOL    HW1  354   1.777   1.952   0.259 -1.2486 -0.1733 -0.5584
   73SOL    HW2  355   1.840   1.815   0.264  0.5949  0.6774  0.6037
   74SOL     OW  356   1.852   3.904   4.974 -0.0004  0.3162 -0.1890
   74SOL    HW1  357   1.794   3.968   5.014 -0.9650  0.7679 -2.1598
   74SOL    HW2  358   1.923   3.957   4.936 -2.1239  0.7064 -4.1148
   75SOL     OW  359   0.456   0.755   0.146 -0.0171 -0.3315 -0.0746
   75SOL    HW1  360   0.372   0.754   0.099  0.1528  3.0706 -0.7519
   75SOL    HW2  361   0.499   0.674   0.120 -1.7795 -0.6624 -2.2875
   76SOL     OW  362   4.264   3.030   0.875  0.4409  0.2537 -0.4302
   76SOL    HW1  363   4.292   3.115   0.841 -0.7972  0.9466  0.2002
   76SOL    HW2  364   4.339   2.998   0.924  1.5638  0.1288 -2.1643
   77SOL     OW  365   1.735   0.512   4.477 -0.2601  0.1751 -1.0016
   77SOL    HW1  366   1.803   0.449   4.499 -0.1995  0.9835  1.4103
   77SOL    HW2  367   1.776   0.598   4.491 -2.1439  0.6997  2.2368
   78SOL     OW  368   0.717   3.940   0.276 -0.0376 -0.1670 -0.0265
   78SOL    HW1  369   0.756   3.889   0.204  0.0360  0.3821 -0.3764
   78SOL    HW2  370   0.623   3.927   0.267 -0.0293 -0.0658 -0.2395
   79SOL     OW  371   4.565   2.387   0.570  0.2056  0.8198 -0.4688
   79SOL    HW1  372   4.601   2.423   0.651 -1.3712 -0.7154  0.9871
   79SOL    HW2  373   4.638   2.390   0.508  1.4630  2.0043  1.0002
   80SOL     OW  374   1.174   0.370   4.771 -0.1406  0.6916  0.1892
   80SOL    HW1  375   1.102   0.355   4.833  0.1453  1.0275  0.6100
   80SOL    HW2  376   1.132   0.373   4.685 -0.5943  0.6142  0.4060
   81SOL     OW  377   3.996   0.055   2.368 -0.3063 -0.3382  0.6232
   81SOL    HW1  378   4.030  -0.015   2.424 -1.8596 -1.6204  0.0390
   81SOL    HW2  379   3.949   0.009   2.298  2.2855  1.1492 -2.3259
   82SOL     OW  380   3.224   1.123   2.139 -0.0527  0.0158 -0.4248
   82SOL    HW1  381   3.167   1.124   2.061  0.6038  0.6167 -0.9092
   82SOL    HW2  382   3.180   1.064   2.200 -1.4129  0.7656 -0.6360
   83SOL     OW  383   4.553   1.446   4.121  0.0291  0.4111  0.2104
   83SOL    HW1  384   4.643   1.441   4.091 -0.2920 -0.7467 -0.5991
   83SOL    HW2  385   4.511   1.510   4.063  0.1422  0.4029  0.1206
   84SOL     OW  386   0.637   3.008   1.205 -0.2694  0.5376  0.2081
   84SOL    HW1  387   0.563   3.033   1.148  0.1502  0.1762 -0.5173
   84SOL    HW2  388   0.674   3.091   1.234 -0.5501  0.7303  0.0254
   85SOL     OW  389   4.674   0.452   4.240 -0.0911 -0.1345 -0.1551
   85SOL    HW1  390   4.630   0.480   4.321  0.0309  1.0808 -0.4918
   85SOL    HW2  391   4.608   0.400   4.194 -0.8392  0.8006 -0.1712
   86SOL     OW  392   1.618   0.243   1.453 -0.3196  0.5749 -0.4370
   86SOL    HW1  393   1.695   0.279   1.498  1.1280 -0.6712 -1.7826
   86SOL    HW2  394   1.572   0.320   1.419  1.3837  1.3067 -1.2175
   87SOL     OW  395   1.038   1.604   4.948 -0.0854  0.9718 -0.0484
   87SOL    HW1  396   0.985   1.582   5.025  0.6228  0.1868  0.2230
   87SOL    HW2  397   0.973   1.619   4.879 -0.6720 -0.1772  0.2278
   88SOL     OW  398   0.926   3.509   3.447 -0.2415 -0.2531 -0.9646
   88SOL    HW1  399   0.856   3.511   3.381  0.6265  0.7328 -1.9067
   88SOL    HW2  400   1.006   3.498   3.395  0.5537  1.4997 -0.1708
   89SOL     OW  401   0.238   4.898   3.490  0.1765 -0.0288  0.1440
   89SOL    HW1  402   0.288   4.900   3.571 -0.1143  1.3714  0.3084
   89SOL    HW2  403   0.233   4.989   3.462  1.7255 -0.6020 -2.3565
   90SOL     OW  404   3.392   2.697   0.579 -0.1845  0.1405  0.0564
   90SOL    HW1  405   3.373   2.788   0.556 -0.7750  0.0402  0.1416
   90SOL    HW2  406   3.337   2.679   0.655  0.3687 -0.1113  0.4085
   91SOL     OW  407   0.674   4.347   3.286 -0.2936  0.2806  0.0623
   91SOL    HW1  408   0.764   4.358   3.317  0.5085 -0.7010 -1.7381
   91SOL    HW2  409   0.653   4.432   3.246  0.7562 -0.1959 -1.6065
   92SOL     OW  410   0.689   0.883   0.361 -0.3307 -0.1742  0.0956
   92SOL    HW1  411   0.707   0.852   0.450  0.9104  0.6545  0.1678
   92SOL    HW2  412   0.603   0.848   0.340 -0.5236 -0.6220  1.5192
   93SOL     OW  413   4.579   1.408   4.967  0.0946  0.4363  0.3393
   93SOL    HW1  414   4.655   1.362   5.003 -0.4080 -1.0147 -0.3819
   93SOL    HW2  415   4.506   1.381   5.022 -0.6958 -1.8716 -1.6922
   94SOL     OW  416   0.412   4.165   0.832 -0.6363  0.2559 -0.0870
   94SOL    HW1  417   0.356   4.124   0.766 -0.1582 -0.0803 -0.2882
   94SOL    HW2  418   0.441   4.247   0.792 -0.5446  0.1693 -0.1988
   95SOL     OW  419   0.755   2.044   3.862  0.0841  0.0215  0.4805
   95SOL    HW1  420   0.821   2.018   3.797 -0.3263 -1.4355  0.6238
   95SOL    HW2  421   0.679   2.071   3.810 -0.0890 -0.7200  0.3409
   96SOL     OW  422   5.002   2.966   1.678  0.1828  0.0050 -0.3312
   96SOL    HW1  423   4.924   2.948   1.731 -1.6858 -0.3469 -3.0063
   96SOL    HW2  424   5.066   2.998   1.741 -2.9063  2.8696  1.7166
   97SOL     OW  425   3.478   3.325   1.314 -0.3224  0.2576  0.1255
   97SOL    HW1  426   3.385   3.307   1.325 -0.9540  1.4846 -2.4181
   97SOL    HW2  427   3.505   3.269   1.242  1.2087 -0.7534  1.4017
   98SOL     OW  428   3.243   4.832   1.360  0.5036 -0.0623 -0.1331
   98SOL    HW1  429   3.183   4.899   1.393 -0.7173 -1.2852  0.2444
   98SOL    HW2  430   3.311   4.881   1.313 -0.6916  1.3778 -0.4317
   99SOL     OW  431   0.849   2.179   4.189  0.6390  0.1537 -0.5568
   99SOL    HW1  432   0.934   2.156   4.152  0.2407 -0.5877 -1.0452
   99SOL    HW2  433   0.832   2.268   4.157  1.4906  0.5316  0.0343
  100SOL     OW  434   2.919   4.061   2.349  0.0638  0.1669 -0.0158
  100SOL    HW1  435   2.892   4.139   2.397  1.0192  0.3119  0.2887
  100SOL    HW2  436   2.968   4.009   2.412 -1.8620 -1.4540  0.2552
  101SOL     OW  437   3.138   2.709   4.882 -0.1287 -0.5166 -0.1184
  101SOL    HW1  438   3.156   2.789   4.932  1.5614  0.1966 -1.7484
  101SOL    HW2  439   3.224   2.667   4.872 -0.2878 -0.3517 -2.8094
  102SOL     OW  440   3.671   3.500   3.840  0.3349 -0.2418 -0.2706
  102SOL    HW1  441   3.601   3.467   3.897 -0.4369  1.4746 -0.1566
  102SOL    HW2  442   3.718   3.422   3.812 -2.5902 -1.6681 -1.6448
  103SOL     OW  443   3.547   0.181   0.210  0.0016 -0.2517  0.1721
  103SOL    HW1  444   3.553   0.085   0.213  0.6264 -0.3584 -2.2733
  103SOL    HW2  445   3.607   0.206   0.140 -0.8154  1.8690  0.1751
  104SOL     OW  446   0.907   2.761   3.085  0.0373 -0.3270 -0.1894
  104SOL    HW1  447   0.947   2.846   3.069  0.0829 -0.5150 -1.1261
  104SOL    HW2  448   0.833   2.758   3.025 -1.0179 -0.2481  1.0678
  105SOL     OW  449   1.030   0.601   2.408  0.0681  0.3481 -0.2915
  105SOL    HW1  450   1.099   0.573   2.467  1.1718 -0.0534 -1.7019
  105SOL    HW2  451   1.051   0.693   2.388 -0.6707  0.6839  0.4207
  106SOL     OW  452   3.623   4.707   3.600 -0.6873 -0.1562  0.1039
  106SOL    HW1  453   3.633   4.739   3.690 -2.2464 -3.0022  1.4206
  106SOL    HW2  454   3.695   4.645   3.588 -1.6985 -1.4130  0.2505
  107SOL     OW  455   4.412   4.327   3.535  0.5408 -0.8810 -0.2617
  107SOL    HW1  456   4.464   4.250   3.513 -0.8751 -1.6601 -1.0259
  107SOL    HW2  457   4.383   4.361   3.450 -0.9147 -0.9872  0.1825
  108SOL     OW  458   2.016   2.777   4.182 -0.5287  0.0269 -0.1027
  108SOL    HW1  459   1.989   2.685   4.188 -0.6494  0.0328 -0.4972
  108SOL    HW2  460   2.072   2.781   4.105  1.7914 -0.2494  1.4664
  109SOL     OW  461   3.921   1.858   4.638  0.4454  0.2381 -0.2932
  109SOL    HW1  462   3.916   1.952   4.622  1.5172  0.2753 -0.4929
  109SOL    HW2  463   3.953   1.850   4.728  2.0487  0.0987 -0.8475
  110SOL     OW  464   4.602   4.561   3.331  0.4368 -0.0257 -0.0765
  110SOL    HW1  465   4.620   4.468   3.343 -2.2304 -0.5647  0.5166
  110SOL    HW2  466   4.648   4.604   3.404 -1.1868 -1.3513  1.8631
  111SOL     OW  467   4.981   2.285   0.572  0.6818  0.0380 -0.5617
  111SOL    HW1  468   5.043   2.217   0.596  0.5950  0.5688  1.3035
  111SOL    HW2  469   4.930   2.300   0.651 -2.8184 -1.3246 -2.2952
  112SOL     OW  470   2.311   2.473   1.424  0.1430 -0.3674 -0.3396
  112SOL    HW1  471   2.332   2.535   1.493  2.3133 -1.7781  0.3625
  112SOL    HW2  472   2.395   2.457   1.380 -0.4290 -2.4675 -0.7529
  113SOL     OW  473   2.603   2.447   2.762 -0.2181 -0.0833 -0.1937
  113SOL    HW1  474   2.602   2.424   2.855  0.7333 -1.9151 -0.5972
  113SOL    HW2  475   2.695   2.466   2.743 -0.0498 -1.7507 -1.1924
  114SOL     OW  476   2.597   2.386   3.037  0.5858  0.3752  0.4187
  114SOL    HW1  477   2.631   2.471   3.063  1.0321  0.2896  0.1381
  114SOL    HW2  478   2.508   2.383   3.072  1.1298  0.2926  1.8830
  115SOL     OW  479   0.734   1.167   0.453 -0.1938  0.1962  0.0914
  115SOL    HW1  480   0.649   1.184   0.494 -1.1248  2.3375 -2.4586
  115SOL    HW2  481   0.725   1.080   0.415 -0.1749 -0.7767  2.1492
  116SOL     OW  482   3.291   4.022  -0.011 -0.2527 -0.0930  0.3858
  116SOL    HW1  483   3.285   3.942   0.042  1.9912 -0.0649  0.7624
  116SOL    HW2  484   3.232   4.083   0.032 -0.8705 -1.0726  0.9778
  117SOL     OW  485   4.601   4.225   1.352 -0.1679 -0.0489 -0.0030
  117SOL    HW1  486   4.529   4.283   1.326 -0.0521 -1.2242 -3.3970
  117SOL    HW2  487   4.680   4.278   1.340 -0.2790  0.7162  2.1673
  118SOL     OW  488   2.079   4.872   2.925 -0.1128  0.3998  0.6184
  118SOL    HW1  489   2.063   4.949   2.979  0.4907  1.9641 -1.2916
  118SOL    HW2  490   2.165   4.840   2.952 -1.2133 -0.9035  2.8189
  119SOL     OW  491   4.239   3.070   3.543 -0.0646  0.2553 -0.6511
  119SOL    HW1  492   4.293   3.107   3.613 -0.3159  0.3967 -0.5279
  119SOL    HW2  493   4.174   3.016   3.589 -1.8775  2.3919 -0.5299
  120SOL     OW  494   4.597   0.690   1.904  0.2514  0.2018 -0.4307
  120SOL    HW1  495   4.556   0.623   1.849  1.7270  1.0791 -2.7737
  120SOL    HW2  496   4.554   0.681   1.989 -0.9521 -2.3937 -1.2071
  121SOL     OW  497   2.922   0.326   3.608 -0.2854  0.4461  0.2105
  121SOL    HW1  498   2.893   0.238   3.587 -0.2193  0.7195 -1.1028
  121SOL    HW2  499   2.950   0.321   3.699  1.7297 -1.4146 -0.4260
  122SOL     OW  500   4.071   2.073   0.979 -0.4876 -0.0356  0.4565
  122SOL    HW1  501   4.011   1.999   0.966 -0.9750  0.7443 -2.4255
  122SOL    HW2  502   4.014   2.147   0.999 -0.4660  0.4624 -1.1598
  123SOL     OW  503   4.846   1.881   3.620  0.1826  0.4090  0.5144
  123SOL    HW1  504   4.857   1.909   3.529  0.6501  0.0858  0.4678
  123SOL    HW2  505   4.935   1.881   3.656  0.2719 -1.5111  0.3726
  124SOL     OW  506   1.954   1.278   3.935  0.2967  0.2532  0.1022
  124SOL    HW1  507   1.891   1.332   3.983 -0.6732 -1.7516  1.2382
  124SOL    HW2  508   1.984   1.334   3.864  1.7191  3.4166  2.8838
  125SOL     OW  509   1.468   4.784   4.058  0.0303  0.3950  0.1080
  125SOL    HW1  510   1.539   4.793   4.122 -0.3635  0.3823  0.5520
  125SOL    HW2  511   1.444   4.692   4.061  2.3335 -0.4305 -2.5931
  126SOL     OW  512   2.633   2.354   4.231  0.1491 -0.1986  0.5211
  126SOL    HW1  513   2.620   2.369   4.324  0.5713 -2.5476  1.0258
  126SOL    HW2  514   2.724   2.326   4.223  0.5752  1.3806 -0.8484
  127SOL     OW  515   1.620   1.665   2.546  0.5679 -0.5480 -0.4030
  127SOL    HW1  516   1.705   1.622   2.552  1.5546  0.7739 -3.3974
  127SOL    HW2  517   1.636   1.754   2.576 -0.4263 -0.8903  1.3555
  128SOL     OW  518   1.522   2.857   2.470  0.2669 -0.9720 -0.1242
  128SOL    HW1  519   1.524   2.944   2.430 -0.6436 -0.7176  0.3462
  128SOL    HW2  520   1.556   2.798   2.402  0.6359 -0.2903 -0.5407
  129SOL     OW  521   0.103   2.531   3.767  0.3855  0.7023 -0.1777
  129SOL    HW1  522   0.169   2.530   3.837  0.4608 -2.2238 -0.1628
  129SOL    HW2  523   0.025   2.569   3.809  1.4032  2.2154  0.4275
  130SOL     OW  524   1.486   3.505   4.823  0.0052  0.2301  0.8796
  130SOL    HW1  525   1.461   3.418   4.791 -2.2958  0.5382  1.6588
  130SOL    HW2  526   1.454   3.565   4.756  3.8894  0.5231 -1.0271
  131SOL     OW  527   3.777   1.115   1.238 -0.0170  0.0842  1.0085
  131SOL    HW1  528   3.827   1.158   1.307  0.1551  1.3158  0.1351
  131SOL    HW2  529   3.830   1.124   1.159 -1.4094  1.0798  0.1413
  132SOL     OW  530   0.985   3.910   1.383  0.0625  0.1627  0.1699
  132SOL    HW1  531   0.891   3.908   1.399 -0.1054 -0.1931 -0.8062
  132SOL    HW2  532   1.021   3.853   1.451 -0.4704 -0.0522  0.2792
  133SOL     OW  533   3.855   3.438   2.942  0.0606 -0.8492  0.1263
  133SOL    HW1  534   3.790   3.384   2.897 -0.4493 -0.3796  0.2907
  133SOL    HW2  535   3.898   3.379   3.004  1.0696 -1.6136 -1.2607
  134SOL     OW  536   4.845   2.630   2.079 -0.0290 -0.5134  0.4837
  134SOL    HW1  537   4.866   2.627   1.985 -1.8971 -1.6569  0.0543
  134SOL    HW2  538   4.757   2.667   2.083  0.3875  0.3923  1.8829
  135SOL     OW  539   3.352   0.077   2.713 -0.3480 -0.0240  0.2179
  135SOL    HW1  540   3.376   0.150   2.771 -1.7171  0.4844  0.1802
  135SOL    HW2  541   3.353   0.115   2.625 -2.5002  0.3884  0.3242
  136SOL     OW  542   3.658   0.094   0.713 -0.7663 -0.1050 -0.4926
  136SOL    HW1  543   3.744   0.133   0.703  0.4605 -1.1922  3.6477
  136SOL    HW2  544   3.661   0.013   0.662  1.5039 -1.1085  1.0920
  137SOL     OW  545   2.255   4.707   2.498 -0.3090  0.1778 -0.5181
  137SOL    HW1  546   2.180   4.651   2.481 -1.1815  1.0102  0.4764
  137SOL    HW2  547   2.327   4.646   2.514 -0.8868 -0.6296 -0.9155
  138SOL     OW  548   1.131   1.180   0.019  0.0420  0.0397  0.6373
  138SOL    HW1  549   1.153   1.096   0.058  0.0192 -0.5066 -0.4724
  138SOL    HW2  550   1.126   1.162  -0.075 -1.9709  0.8360  0.5514
  139SOL     OW  551   3.789   1.674   0.256  0.0532  0.3158  0.4624
  139SOL    HW1  552   3.725   1.684   0.327  0.5182  0.2657  0.8923
  139SOL    HW2  553   3.873   1.660   0.301  0.5186  1.2815 -0.0862
  140SOL     OW  554   4.864   3.111   3.399 -0.0038 -1.0813 -0.3040
  140SOL    HW1  555   4.896   3.148   3.316  1.1224  0.1913  0.6692
  140SOL    HW2  556   4.942   3.102   3.453 -0.7656 -1.6714  0.7307
  141SOL     OW  557   2.056   0.201   2.532  0.2771  0.0011 -0.3352
  141SOL    HW1  558   2.025   0.254   2.459 -0.6711 -0.6645 -0.4313
  141SOL    HW2  559   1.977   0.173   2.577  0.5449 -3.0839 -1.5166
  142SOL     OW  560   1.293   0.591   2.690  0.3427 -0.0262  0.7169
  142SOL    HW1  561   1.258   0.501   2.690 -2.1869  0.8566 -0.3855
  142SOL    HW2  562   1.351   0.594   2.614 -1.1220 -0.2490 -0.4592
  143SOL     OW  563   4.802   3.075   0.717 -0.0532  0.0532 -0.3975
  143SOL    HW1  564   4.836   3.155   0.677  1.0481 -0.6254 -0.8730
  143SOL    HW2  565   4.798   3.012   0.645  0.3148 -0.6814  0.2076
  144SOL     OW  566   4.850   2.678   4.199 -0.3566 -0.1853  0.6441
  144SOL    HW1  567   4.893   2.610   4.148 -4.6360 -1.4495 -1.7592
  144SOL    HW2  568   4.888   2.760   4.167  1.9149 -1.2312  0.5237
  145SOL     OW  569   2.257   4.342   3.377 -0.4301 -1.0787 -0.4498
  145SOL    HW1  570   2.313   4.266   3.356  0.5722 -0.7883  1.0441
  145SOL    HW2  571   2.173   4.321   3.337  0.6185 -1.6798 -2.5133
  146SOL     OW  572   0.155   1.941   1.178  0.8451 -0.1700 -0.3751
  146SOL    HW1  573   0.214   2.008   1.143 -1.0692  2.2518  0.7638
  146SOL    HW2  574   0.183   1.928   1.268  0.4651  0.0167 -0.2273
  147SOL     OW  575   1.745   4.243   1.899  0.4465 -0.4763  0.5290
  147SOL    HW1  576   1.667   4.188   1.911 -0.7459  0.6074 -1.7421
  147SOL    HW2  577   1.800   4.194   1.839  0.6041 -0.3443  0.5639
  148SOL     OW  578   1.146   2.787   4.174  0.1120 -0.3612 -0.0539
  148SOL    HW1  579   1.054   2.784   4.199  0.6665 -1.6657  2.0863
  148SOL    HW2  580   1.169   2.880   4.178 -0.8928 -0.1172  0.2248
  149SOL     OW  581   4.045   0.705   1.633 -0.9009 -0.5897 -0.1603
  149SOL    HW1  582   4.073   0.618   1.605 -3.6183 -1.0757 -1.7314
  149SOL    HW2  583   4.025   0.751   1.552 -0.1603  1.3223  0.6729
  150SOL     OW  584   2.597   4.814   1.071  0.6874 -0.2751  0.2455
  150SOL    HW1  585   2.547   4.833   0.992 -1.7505 -1.8811  1.2977
  150SOL    HW2  586   2.634   4.728   1.057  0.7083 -0.3317  0.6287
  151SOL     OW  587   1.907   1.917   4.175 -0.2426  0.4769 -0.1029
  151SOL    HW1  588   1.947   1.998   4.145 -1.4349  1.1492  0.0822
  151SOL    HW2  589   1.925   1.914   4.269  0.8933 -0.1244 -0.3236
  152SOL     OW  590   1.462   3.275   2.089  0.2657  0.2332 -0.5483
  152SOL    HW1  591   1.447   3.209   2.157 -0.7339 -0.1154 -1.0807
  152SOL    HW2  592   1.535   3.327   2.122 -0.6938  0.5774  1.1768
  153SOL     OW  593   3.197   4.308   2.788 -0.0850  1.1431  0.0903
  153SOL    HW1  594   3.286   4.288   2.760  0.0145 -0.2546  1.3268
  153SOL    HW2  595   3.206   4.383   2.847  0.3720  0.5588  0.7752
  154SOL     OW  596   1.455   5.050   1.574  0.1157  0.0654 -0.0536
  154SOL    HW1  597   1.405   4.969   1.586 -0.0217  0.3784  1.5876
  154SOL    HW2  598   1.411   5.094   1.501 -4.7842  2.2984  3.6865
  155SOL     OW  599   2.364   3.192   4.211  0.5546 -0.1771 -0.0353
  155SOL    HW1  600   2.317   3.265   4.251  0.0309 -0.1461 -0.6860
  155SOL    HW2  601   2.435   3.232   4.163  0.9489 -0.1856  0.5326
  156SOL     OW  602   3.414   0.061   1.535  0.2930  0.1003  0.0077
  156SOL    HW1  603   3.483   0.078   1.470 -0.1703  0.9709 -0.2699
  156SOL    HW2  604   3.385   0.148   1.562 -0.4826 -0.2618  0.3572
  157SOL     OW  605   2.135   1.625   2.567 -0.5001 -0.3749  0.4085
  157SOL    HW1  606   2.217   1.673   2.573  0.6949 -2.3351  0.8719
  157SOL    HW2  607   2.067   1.692   2.563  1.1805  1.3197 -1.2381
  158SOL     OW  608   4.263   1.742   2.595  0.2500 -0.4438  0.6668
  158SOL    HW1  609   4.227   1.762   2.509  0.4709  1.4187  0.9693
  158SOL    HW2  610   4.216   1.663   2.623 -0.4746 -0.5522 -0.7484
  159SOL     OW  611   2.077   3.849   0.170  0.1408 -0.3451  0.8005
  159SOL    HW1  612   1.994   3.841   0.217 -0.1023  0.0472  0.4371
  159SOL    HW2  613   2.135   3.786   0.214  0.3246  0.9382  2.4874
  160SOL     OW  614   2.280   2.165   2.162  0.0566 -0.4944 -0.1439
  160SOL    HW1  615   2.257   2.189   2.252 -0.3559 -3.0700  0.5049
  160SOL    HW2  616   2.315   2.246   2.124 -1.8522  1.2697  1.6012
  161SOL     OW  617   2.431   4.407   0.116  0.0465  0.3962 -0.5324
  161SOL    HW1  618   2.370   4.344   0.154  1.6137 -1.4842 -0.9565
  161SOL    HW2  619   2.398   4.422   0.028 -1.8370  2.3291  0.4279
  162SOL     OW  620   1.689   2.512   2.431  0.3205 -0.1164 -0.3572
  162SOL    HW1  621   1.750   2.548   2.495 -1.7788  2.0696  0.5657
  162SOL    HW2  622   1.740   2.504   2.350  2.1696  0.1644  0.7269
  163SOL     OW  623   0.254   2.743   0.861 -0.2451  0.3168  0.1080
  163SOL    HW1  624   0.180   2.800   0.838 -0.7063 -0.1064  0.5173
  163SOL    HW2  625   0.310   2.799   0.915 -0.8949  0.2812  0.8457
  164SOL     OW  626   3.974   0.989   0.473 -0.0784  0.4885  0.4311
  164SOL    HW1  627   3.894   1.009   0.521 -0.0567 -2.4409  1.8622
  164SOL    HW2  628   3.946   0.926   0.406  0.1798  3.3412 -2.6393
  165SOL     OW  629   1.972   2.229   1.745  0.3159  0.4335  0.4113
  165SOL    HW1  630   1.915   2.156   1.720  1.2628 -0.5083  0.8939
  165SOL    HW2  631   2.024   2.195   1.818  1.4011  1.2884  0.0782
  166SOL     OW  632   2.013   2.068   2.423 -0.3827 -0.2618 -0.5763
  166SOL    HW1  633   2.093   2.099   2.465 -1.2428 -0.3598  1.2310
  166SOL    HW2  634   1.954   2.143   2.426 -1.8095 -1.3591  2.0703
  167SOL     OW  635   0.911   3.369   4.702 -0.3152 -0.6561 -0.0875
  167SOL    HW1  636   0.985   3.361   4.642 -1.8605 -0.3078 -2.1806
  167SOL    HW2  637   0.942   3.426   4.772  1.3321 -0.3925 -0.9800
  168SOL     OW  638   0.245   4.557   2.167 -0.3655 -0.0081 -0.0686
  168SOL    HW1  639   0.218   4.527   2.255 -0.6271 -0.2610 -0.2314
  168SOL    HW2  640   0.258   4.476   2.118  0.9483  0.0993  0.0738
  169SOL     OW  641   4.604   2.721   2.051  0.2364 -0.2241  0.2850
  169SOL    HW1  642   4.564   2.716   2.137  2.0230  1.2746  1.2830
  169SOL    HW2  643   4.596   2.813   2.025  2.8963  0.1852  0.5741
  170SOL     OW  644   3.473   4.390   1.931  0.3231 -0.0138  0.0164
  170SOL    HW1  645   3.508   4.361   1.846 -2.1833 -1.4690 -0.6271
  170SOL    HW2  646   3.530   4.347   1.995  0.6009 -1.1902 -0.9632
  171SOL     OW  647   1.935   3.572   1.902  0.5281  0.1825  0.1255
  171SOL    HW1  648   1.841   3.554   1.902  0.8753 -2.0045  0.8653
  171SOL    HW2  649   1.955   3.598   1.812 -0.2535 -2.9298 -1.0694
  172SOL     OW  650   1.355   0.962   3.808  0.0093 -0.8468 -0.4275
  172SOL    HW1  651   1.277   0.953   3.863  0.8954 -0.6214  0.9232
  172SOL    HW2  652   1.345   1.048   3.767 -0.2867 -0.6589  0.0244
  173SOL     OW  653   0.756   2.360   1.912  0.2306 -0.4807  0.5556
  173SOL    HW1  654   0.665   2.333   1.927 -0.0626  1.2944  2.4354
  173SOL    HW2  655   0.807   2.307   1.972  0.5948 -1.9534 -0.9655
  174SOL     OW  656   4.013   4.463   4.656 -0.0904 -0.4414 -0.1430
  174SOL    HW1  657   4.039   4.463   4.564 -1.0701  0.1994 -0.4316
  174SOL    HW2  658   3.998   4.555   4.678 -2.8259 -0.7622 -0.2486
  175SOL     OW  659   2.193   3.127   3.722 -0.1724 -0.2936  0.1014
  175SOL    HW1  660   2.188   3.128   3.817  1.0272 -3.6552  0.3113
  175SOL    HW2  661   2.131   3.060   3.695 -0.2932  0.4117 -1.4946
  176SOL     OW  662   4.173   3.510   4.755  0.2318  0.1566 -0.0898
  176SOL    HW1  663   4.168   3.519   4.660 -1.3619  2.1444  0.1160
  176SOL    HW2  664   4.100   3.452   4.777 -0.2823  0.8222  0.0047
  177SOL     OW  665   0.962   1.187   2.775 -0.0606 -0.2025  0.4402
  177SOL    HW1  666   0.923   1.238   2.845  0.4141 -0.1968  0.7040
  177SOL    HW2  667   0.980   1.102   2.815 -0.9453 -0.6218 -0.0245
  178SOL     OW  668   2.609   4.095   4.841  0.1923 -0.5026  0.1226
  178SOL    HW1  669   2.642   4.183   4.828  0.3250 -0.2914  1.6813
  178SOL    HW2  670   2.686   4.038   4.834  0.1409 -0.4875 -0.6604
  179SOL     OW  671   3.665   3.274   0.176  0.3187  0.1057  0.7052
  179SOL    HW1  672   3.751   3.232   0.169  0.7588  1.2076 -1.4560
  179SOL    HW2  673   3.661   3.305   0.266  2.2897  0.1931  0.8039
  180SOL     OW  674   2.169   3.629   3.556 -0.2760  0.6214  0.0500
  180SOL    HW1  675   2.225   3.600   3.484 -1.3719  0.3516 -0.7222
  180SOL    HW2  676   2.230   3.649   3.627  0.8148  0.6336 -0.8566
  181SOL     OW  677   1.594   2.808   0.832 -0.0676  0.1834 -0.1183
  181SOL    HW1  678   1.633   2.856   0.760  1.2045 -0.4078  0.1527
  181SOL    HW2  679   1.527   2.867   0.867 -0.7807  0.4247 -1.8314
  182SOL     OW  680   0.339   4.934   0.121 -0.3745  0.3630  0.4289
  182SOL    HW1  681   0.417   4.881   0.137  0.3544  1.6530  1.3738
  182SOL    HW2  682   0.285   4.923   0.200  0.0805  1.4798  0.9203
  183SOL     OW  683   4.299   3.229   3.973 -0.0387  0.0135  1.4186
  183SOL    HW1  684   4.234   3.287   3.933 -0.1779 -0.9277  0.2417
  183SOL    HW2  685   4.360   3.289   4.017  0.1560  1.1224 -0.2574
  184SOL     OW  686   1.992   1.040   1.087 -0.3462 -0.0450 -0.3160
  184SOL    HW1  687   2.019   0.950   1.103 -1.8756 -0.5624 -0.4284
  184SOL    HW2  688   2.015   1.087   1.167  0.4588 -0.5282 -0.2538
  185SOL     OW  689   0.507   2.381   2.248 -0.1399 -0.1013 -0.1082
  185SOL    HW1  690   0.488   2.391   2.341  1.3823 -1.1616  0.3535
  185SOL    HW2  691   0.595   2.417   2.237  0.0411 -0.7555 -0.9557
  186SOL     OW  692   2.565   0.506   0.735  0.2119  0.1605 -0.0171
  186SOL    HW1  693   2.627   0.515   0.807 -0.8124  1.5708  0.7254
  186SOL    HW2  694   2.515   0.587   0.735 -1.0888 -0.5854 -1.1246
  187SOL     OW  695   1.906   5.030   0.316 -0.3145 -0.3688  0.1656
  187SOL    HW1  696   1.946   4.978   0.246  2.4677 -0.3581  1.5985
  187SOL    HW2  697   1.897   4.969   0.389 -2.5210 -0.2063  0.0870
  188SOL     OW  698   2.371   4.252   1.338 -0.3317 -0.4000 -0.1225
  188SOL    HW1  699   2.419   4.331   1.364 -1.0118 -0.0079 -0.0458
  188SOL    HW2  700   2.309   4.282   1.271 -1.6584 -0.5590  0.9949
  189SOL     OW  701   0.228   1.996   2.138 -0.1144 -0.0293  0.5761
  189SOL    HW1  702   0.214   2.090   2.123  2.9100  0.4094 -0.2469
  189SOL    HW2  703   0.161   1.953   2.085  0.0128  1.6871 -1.0952
  190SOL     OW  704   3.143   0.252   0.640 -0.0464 -0.0677  0.1104
  190SOL    HW1  705   3.230   0.226   0.670 -0.3417 -1.2384 -0.0072
  190SOL    HW2  706   3.130   0.202   0.559 -0.7655  0.2054  0.0516
  191SOL     OW  707   4.330   1.814   3.016  0.3290  0.4249  0.2064
  191SOL    HW1  708   4.260   1.869   2.981 -0.3492 -1.1922 -1.1458
  191SOL    HW2  709   4.364   1.767   2.939  2.0523  0.2476  1.0403
  192SOL     OW  710   1.221   4.548   0.725 -0.1590 -0.8589 -0.5650
  192SOL    HW1  711   1.141   4.595   0.699  2.7374  3.2141 -3.3758
  192SOL    HW2  712   1.234   4.572   0.817 -0.3416  1.6034 -1.1104
  193SOL     OW  713   2.858   3.170   3.265  0.1889  0.2893 -0.4406
  193SOL    HW1  714   2.861   3.189   3.358  1.9752  2.4592 -0.8508
  193SOL    HW2  715   2.801   3.093   3.257 -2.4341  1.7699  2.1274
  194SOL     OW  716   0.732   4.471   4.776 -0.3886  0.4682  0.7804
  194SOL    HW1  717   0.718   4.561   4.746 -0.7289  0.0250 -0.4738
  194SOL    HW2  718   0.646   4.429   4.767  0.5176 -1.0435 -2.5508
  195SOL     OW  719   3.752   2.818   2.219 -0.2319 -0.1057 -0.4025
  195SOL    HW1  720   3.690   2.841   2.150  0.3661 -0.0555 -0.9182
  195SOL    HW2  721   3.752   2.894   2.277 -2.0823 -0.8249  0.6561
  196SOL     OW  722   3.552   3.045   1.856  0.2567  0.1787  0.6228
  196SOL    HW1  723   3.480   3.014   1.801 -0.0149  0.2425  0.9352
  196SOL    HW2  724   3.561   2.977   1.923 -0.6359  0.9619  1.5709
  197SOL     OW  725   4.512   2.366   2.743 -0.4203 -0.4093  0.3122
  197SOL    HW1  726   4.506   2.376   2.648  0.1331  0.4938  0.3540
  197SOL    HW2  727   4.520   2.456   2.775 -2.4740 -0.5435  1.3625
  198SOL     OW  728   0.967   2.754   3.349 -0.5106  0.4216  0.5571
  198SOL    HW1  729   0.985   2.674   3.399  0.1144  0.5200  0.5001
  198SOL    HW2  730   0.961   2.724   3.258 -2.7635  0.0668  0.7631
  199SOL     OW  731   3.230   4.466   0.271  0.2987  0.8118  0.4873
  199SOL    HW1  732   3.259   4.490   0.359 -0.5830  0.1632  0.9703
  199SOL    HW2  733   3.135   4.475   0.274  0.0614 -1.0983  0.2158
  200SOL     OW  734   2.381   2.687   0.751 -0.4962  0.1175 -0.2289
  200SOL    HW1  735   2.450   2.722   0.807  0.1481 -0.2643 -0.7666
  200SOL    HW2  736   2.305   2.743   0.769 -0.7800 -0.9207  2.1456
  201SOL     OW  737   2.111   2.088   1.926  0.3691 -0.1396 -0.4047
  201SOL    HW1  738   2.159   2.120   2.002 -0.4837  2.1724 -0.7717
  201SOL    HW2  739   2.058   2.016   1.960  0.4222  0.4834  1.0688
  202SOL     OW  740   2.773   2.644   1.665 -0.3013 -0.4077  1.0304
  202SOL    HW1  741   2.769   2.558   1.707 -1.8542 -1.3239 -0.8290
  202SOL    HW2  742   2.711   2.638   1.592  0.7589  1.7689 -0.1412
  203SOL     OW  743   2.147   0.174   1.298 -0.0811 -0.1701 -0.9337
  203SOL    HW1  744   2.067   0.131   1.329  0.5393 -1.1187 -0.6396
  203SOL    HW2  745   2.166   0.240   1.365  0.7654 -1.6272  0.3089
  204SOL     OW  746   1.873   1.146   4.881 -0.4107 -0.3212  0.7947
  204SOL    HW1  747   1.907   1.228   4.844  0.3092 -0.5302  0.9794
  204SOL    HW2  748   1.819   1.109   4.811 -0.0598 -0.1031  0.4082
  205SOL     OW  749   3.598   4.788   1.532  0.4426  0.3085  0.0666
  205SOL    HW1  750   3.517   4.828   1.501 -0.3705 -0.3779  1.2215
  205SOL    HW2  751   3.662   4.859   1.533 -0.2161  0.9205 -0.5902
  206SOL     OW  752   3.647   1.746   4.566 -0.0188 -0.3499  0.1331
  206SOL    HW1  753   3.633   1.741   4.660 -1.2837  1.6105  0.1144
  206SOL    HW2  754   3.734   1.782   4.556 -0.5297  1.0604  0.6148
  207SOL     OW  755   0.876   3.100   4.724 -0.7504  0.1659  0.2507
  207SOL    HW1  756   0.880   3.196   4.715  0.5056 -0.0379 -2.0931
  207SOL    HW2  757   0.952   3.078   4.777 -1.8811  0.5102  2.1346
  208SOL     OW  758   1.511   3.662   1.089 -0.4762  0.2436 -0.2522
  208SOL    HW1  759   1.462   3.734   1.129  0.5086 -0.5599  2.6142
  208SOL    HW2  760   1.460   3.584   1.109 -0.0177 -0.1797 -0.7091
  209SOL     OW  761   0.935   1.352   4.502  0.3827 -0.1598 -0.4655
  209SOL    HW1  762   0.943   1.272   4.450 -1.7211  0.2801 -1.5833
  209SOL    HW2  763   1.020   1.395   4.493  0.5424 -0.7808 -2.4343
  210SOL     OW  764   4.599   1.768   1.190 -0.2689 -0.2812 -0.4646
  210SOL    HW1  765   4.527   1.721   1.233 -0.5009 -2.1376 -2.7044
  210SOL    HW2  766   4.562   1.797   1.106  0.7685  1.3572 -0.3946
  211SOL     OW  767   1.020   1.119   2.539  0.1085  0.1405  0.5173
  211SOL    HW1  768   1.108   1.156   2.534  0.9690 -1.5211  2.1683
  211SOL    HW2  769   0.988   1.144   2.626 -0.7930  0.1550  0.1954
  212SOL     OW  770   2.206   1.700   1.905 -0.5023 -0.2555  0.6268
  212SOL    HW1  771   2.264   1.742   1.841 -0.5988 -2.1046 -0.7478
  212SOL    HW2  772   2.173   1.772   1.958 -1.2147  1.5373 -2.0352
  213SOL     OW  773   2.612   1.549   3.363 -0.5736  0.5527  1.0834
  213SOL    HW1  774   2.650   1.581   3.281 -0.7766 -1.0262  0.3293
  213SOL    HW2  775   2.553   1.478   3.336  0.2803 -0.8484  2.6863
  214SOL     OW  776   0.335   2.349   1.400  0.0989  0.3771 -0.2517
  214SOL    HW1  777   0.322   2.405   1.323 -1.3857 -0.0336 -0.3263
  214SOL    HW2  778   0.429   2.331   1.401 -0.0853 -1.7573 -3.5472
  215SOL     OW  779   2.833   0.130   1.530  0.1877 -0.1066 -0.2632
  215SOL    HW1  780   2.787   0.086   1.459 -1.0377 -0.8051  0.9311
  215SOL    HW2  781   2.797   0.092   1.610  0.6687  1.5075  0.7731
  216SOL     OW  782   5.014   3.836   2.627  0.1450 -0.6125  0.2584
  216SOL    HW1  783   4.948   3.796   2.683 -0.4039 -1.3558 -0.8916
  216SOL    HW2  784   4.964   3.877   2.556  0.9270 -1.4829 -0.8146
  217SOL     OW  785   4.052   0.411   3.713  0.0490 -0.9194 -0.5052
  217SOL    HW1  786   3.989   0.448   3.652 -1.9700 -1.7910  0.9338
  217SOL    HW2  787   4.037   0.317   3.710  1.8563 -1.2386 -0.6857
  218SOL     OW  788   3.700   2.442   2.010 -0.1843 -0.0080 -0.5739
  218SOL    HW1  789   3.641   2.489   1.951 -0.8455 -0.8634 -0.6126
  218SOL    HW2  790   3.678   2.350   1.998 -1.0440 -0.1688  1.7242
  219SOL     OW  791   3.002   0.661   2.160  0.7933  0.2168  0.1651
  219SOL    HW1  792   3.046   0.718   2.096 -0.8685  0.0583 -1.1874
  219SOL    HW2  793   3.016   0.573   2.126 -0.0831  0.1323 -0.0043
  220SOL     OW  794   4.996   4.865   3.966  0.0760 -0.7459  0.2254
  220SOL    HW1  795   4.992   4.776   3.931 -0.6695 -0.5971 -0.0891
  220SOL    HW2  796   4.988   4.854   4.061 -2.6075 -0.9015  0.0609
  221SOL     OW  797   4.433   1.253   3.125  0.0847 -0.4295 -0.2605
  221SOL    HW1  798   4.476   1.226   3.206  3.4622  1.4590 -1.2535
  221SOL    HW2  799   4.435   1.175   3.070  0.7619 -0.8308  0.3185
  222SOL     OW  800   1.349   1.764   0.760  0.6832 -0.2938  0.5451
  222SOL    HW1  801   1.437   1.793   0.783 -0.3434  1.8631  2.0721
  222SOL    HW2  802   1.306   1.842   0.725 -1.1780 -0.7780  1.6107
  223SOL     OW  803   2.583   0.217   1.235  0.2254 -0.9788  0.7329
  223SOL    HW1  804   2.601   0.131   1.196 -0.2788 -0.7757  0.0163
  223SOL    HW2  805   2.627   0.279   1.177 -1.6476 -0.5702 -0.3432
  224SOL     OW  806   4.264   0.089   0.443 -0.4487  0.1221  0.9244
  224SOL    HW1  807   4.234   0.126   0.360 -0.8633 -0.6465  0.7215
  224SOL    HW2  808   4.193   0.032   0.471  0.3012 -0.7771  1.0570
  225SOL     OW  809   2.230   1.108   3.655  0.1642  0.1170  0.2934
  225SOL    HW1  810   2.297   1.046   3.624  0.3084  0.4511 -0.0761
  225SOL    HW2  811   2.161   1.104   3.589 -0.2787 -0.3774  0.7797
  226SOL     OW  812   4.220   1.447   3.935  0.4445  1.0458  0.2917
  226SOL    HW1  813   4.267   1.366   3.918  0.2915  1.3343 -1.6689
  226SOL    HW2  814   4.282   1.517   3.914  0.7067  1.4949  2.3184
  227SOL     OW  815   2.499   4.246   2.179  0.4685  0.4424 -0.1799
  227SOL    HW1  816   2.528   4.158   2.154  3.1487  1.0210  0.5863
  227SOL    HW2  817   2.568   4.304   2.146 -0.1632  2.0468  1.1894
  228SOL     OW  818   4.775   4.668   4.259  0.1751  0.0362  0.4217
  228SOL    HW1  819   4.751   4.664   4.167  1.6760 -0.8959  0.0473
  228SOL    HW2  820   4.703   4.622   4.304 -0.3696  0.1574 -0.3043
  229SOL     OW  821   2.001   3.048   2.055  0.2869 -0.5574  0.3376
  229SOL    HW1  822   1.957   2.998   1.986 -4.0513  0.3660  2.1685
  229SOL    HW2  823   1.998   3.139   2.024  0.4813 -0.4207  0.7193
  230SOL     OW  824   0.367   4.430   0.647  0.2907 -0.2576  0.1364
  230SOL    HW1  825   0.439   4.490   0.666 -0.5280  0.7523  0.1493
  230SOL    HW2  826   0.327   4.464   0.567  1.0787 -2.0143 -1.0592
  231SOL     OW  827   2.009   1.850   0.495  0.0557  0.3900 -0.1138
  231SOL    HW1  828   1.972   1.762   0.496  0.9253  0.0095  1.8649
  231SOL    HW2  829   2.090   1.841   0.445  0.7438 -0.2216  1.0727
  232SOL     OW  830   1.115   2.616   3.984 -0.4874  0.1944  0.1579
  232SOL    HW1  831   1.149   2.670   4.055  2.5582  0.3790 -1.2987
  232SOL    HW2  832   1.061   2.675   3.932  1.7271  1.5836 -0.6746
  233SOL     OW  833   2.714   0.127   2.713  0.7951  0.6966 -0.1965
  233SOL    HW1  834   2.669   0.154   2.633 -0.4681  1.6589  0.7829
  233SOL    HW2  835   2.790   0.077   2.683 -0.7045 -0.6710 -1.9608
  234SOL     OW  836   3.778   1.998   3.042 -0.7371 -0.1660 -0.1389
  234SOL    HW1  837   3.849   1.953   2.996  1.9347  2.3337  1.1744
  234SOL    HW2  838   3.784   1.966   3.132 -1.0909  0.2538  0.0357
  235SOL     OW  839   3.937   0.964   4.304 -0.1554  0.3105 -0.2257
  235SOL    HW1  840   3.892   0.908   4.241  0.5777  0.7214 -1.1462
  235SOL    HW2  841   3.963   1.041   4.253  0.9095  0.4206  0.4509
  236SOL     OW  842   2.443   2.919   2.115  0.3449  0.0549  0.7308
  236SOL    HW1  843   2.489   2.868   2.182  1.0557 -0.0642  0.1689
  236SOL    HW2  844   2.512   2.969   2.073  0.2533 -1.4289 -1.3178
  237SOL     OW  845   4.832   0.011   3.847 -0.0306  0.0322 -0.0293
  237SOL    HW1  846   4.898  -0.058   3.857 -0.0063  0.0475 -0.0791
  237SOL    HW2  847   4.875   0.090   3.881 -0.4053 -0.1672  0.9315
  238SOL     OW  848   0.370   4.058   3.323  0.3061 -0.0449  0.2687
  238SOL    HW1  849   0.426   4.108   3.264 -0.0515 -1.8654 -1.7466
  238SOL    HW2  850   0.307   4.015   3.265 -0.5791 -1.3188  2.0840
  239SOL     OW  851   1.079   1.311   3.204  0.0823  0.0106 -0.2057
  239SOL    HW1  852   1.069   1.391   3.255  1.1624  0.5597 -0.8198
  239SOL    HW2  853   1.129   1.252   3.262 -1.2062 -0.4565  0.4681
  240SOL     OW  854   1.444   1.931   1.100  0.0957 -0.1832 -0.1329
  240SOL    HW1  855   1.463   2.008   1.152  0.9661 -0.5059  0.0445
  240SOL    HW2  856   1.354   1.908   1.122 -0.3759  1.1199 -0.6382
  241SOL     OW  857   3.905   0.768   0.309  0.7735 -0.2418 -0.0099
  241SOL    HW1  858   3.875   0.797   0.223  0.1904  0.0823  0.2965
  241SOL    HW2  859   3.966   0.697   0.290 -1.4235 -2.0753 -0.6180
  242SOL     OW  860   4.744   0.152   1.056  0.9285 -0.2338 -0.4322
  242SOL    HW1  861   4.819   0.206   1.080  1.1972 -0.3625 -0.9506
  242SOL    HW2  862   4.717   0.185   0.970  1.5913 -1.3995 -1.1273
  243SOL     OW  863   2.009  -0.010   2.316  0.5655 -0.0583 -0.2282
  243SOL    HW1  864   1.921  -0.013   2.353  0.4090  2.2390 -0.3118
  243SOL    HW2  865   2.050   0.067   2.355  1.8321  0.0756 -1.7105
  244SOL     OW  866   0.935   3.484   0.701 -0.7607  0.0688  0.0257
  244SOL    HW1  867   0.867   3.417   0.695 -0.6517  0.0414 -0.9437
  244SOL    HW2  868   0.993   3.452   0.771 -1.0064 -0.5748 -0.0574
  245SOL     OW  869   4.861   4.576   3.725  0.2998 -0.6411 -0.3782
  245SOL    HW1  870   4.809   4.633   3.668 -1.2449 -1.7398 -0.1394
  245SOL    HW2  871   4.933   4.546   3.670 -0.0191 -0.0914 -1.1156
  246SOL     OW  872   4.760   1.453   1.340  0.5106  0.1111  0.5048
  246SOL    HW1  873   4.806   1.534   1.364  0.3378  0.2995  0.2150
  246SOL    HW2  874   4.771   1.395   1.415  1.2460  0.1449  0.4297
  247SOL     OW  875   3.612   0.284   2.979 -0.5118  0.0623  0.0504
  247SOL    HW1  876   3.553   0.329   3.040  0.8721  1.4020  0.4706
  247SOL    HW2  877   3.693   0.273   3.028  0.0891 -0.3566 -1.0137
  248SOL     OW  878   2.172   4.262   1.945  0.1250  0.4141  0.1543
  248SOL    HW1  879   2.263   4.249   1.973  0.4963  0.8320 -0.8327
  248SOL    HW2  880   2.174   4.247   1.851 -0.1213  3.8601 -0.5179
  249SOL     OW  881   3.368   4.243   4.057  0.1650  0.0877  0.0588
  249SOL    HW1  882   3.459   4.235   4.031 -0.1399  0.8402 -1.3645
  249SOL    HW2  883   3.348   4.337   4.048 -0.5961  0.0264  0.8951
  250SOL     OW  884   1.473   1.665   3.481 -0.3078  0.9232 -0.0049
  250SOL    HW1  885   1.554   1.663   3.431 -0.6496 -1.4333 -0.5975
  250SOL    HW2  886   1.481   1.592   3.543 -1.6326  1.1693  0.5043
  251SOL     OW  887   0.964   3.035   0.603  0.3255 -0.6664  0.0333
  251SOL    HW1  888   0.957   2.971   0.533  0.7041 -0.0187 -0.6162
  251SOL    HW2  889   0.974   3.119   0.558 -0.9049 -0.0485  0.8481
  252SOL     OW  890   3.159   3.222   3.322  0.6145 -0.3578  0.2029
  252SOL    HW1  891   3.064   3.211   3.334  0.7473 -1.4913  0.3023
  252SOL    HW2  892   3.178   3.176   3.240  0.9222  0.8185 -0.4116
  253SOL     OW  893   0.107   3.834   4.541  0.7214  0.6216  0.2330
  253SOL    HW1  894   0.013   3.815   4.536  0.2841  2.9412 -1.5182
  253SOL    HW2  895   0.124   3.842   4.635 -1.1162  1.4389  0.5372
  254SOL     OW  896   1.849   2.069   0.712  0.3481  0.2029  0.1846
  254SOL    HW1  897   1.864   1.974   0.713 -0.0361 -0.1013 -3.9757
  254SOL    HW2  898   1.925   2.106   0.756  1.5966 -1.9930  0.0292
  255SOL     OW  899   2.869   1.478   1.578 -0.0384  0.1108  0.1900
  255SOL    HW1  900   2.910   1.554   1.618  1.0965 -0.4392  0.0972
  255SOL    HW2  901   2.926   1.454   1.505 -0.2869 -0.9159  0.3078
  256SOL     OW  902   3.356   4.937   3.438  0.4586 -0.5048 -0.2761
  256SOL    HW1  903   3.316   5.019   3.465 -0.6897 -1.3354  0.6444
  256SOL    HW2  904   3.383   4.952   3.347  0.8843  1.0838  0.0865
  257SOL     OW  905   0.677   3.071   0.225  0.3958 -0.4284 -0.2877
  257SOL    HW1  906   0.689   3.145   0.284 -1.3669 -0.0090 -0.4002
  257SOL    HW2  907   0.704   3.105   0.139 -0.2077  0.0468 -0.3020
  258SOL     OW  908   0.603   3.999   4.997 -0.1086 -1.2463 -0.5117
  258SOL    HW1  909   0.524   4.047   5.020  0.6081 -0.9691  1.6066
  258SOL    HW2  910   0.674   4.052   5.032  0.8852 -2.5413 -0.4855
  259SOL     OW  911   0.890   2.422   1.580  0.5089  0.0408 -0.1535
  259SOL    HW1  912   0.942   2.501   1.598  1.3621 -0.7107  0.8060
  259SOL    HW2  913   0.955   2.353   1.568 -0.2072 -1.3209  2.8483
  260SOL     OW  914   1.193   3.373   3.848  0.1168  0.2138  0.0164
  260SOL    HW1  915   1.203   3.467   3.833  0.6458  0.0529 -0.6991
  260SOL    HW2  916   1.142   3.367   3.928 -1.4644  1.1212 -0.8778
  261SOL     OW  917   0.056   0.197   3.693  0.1957  0.2191 -0.1131
  261SOL    HW1  918   0.137   0.176   3.646  0.0938 -0.4486  0.0016
  261SOL    HW2  919   0.062   0.145   3.774  0.0113  0.7657  0.2530
  262SOL     OW  920   2.451   0.699   1.364  0.6287  0.8647 -0.6788
  262SOL    HW1  921   2.397   0.777   1.356  0.9679  1.0649 -1.0559
  262SOL    HW2  922   2.532   0.721   1.317  1.0670  0.5975 -0.0581
  263SOL     OW  923   5.033   0.902   4.959  0.0122 -0.1418  0.5326
  263SOL    HW1  924   4.980   0.837   4.912 -1.7647  1.3944  0.2580
  263SOL    HW2  925   5.004   0.986   4.923  1.1776  0.8859  1.8913
  264SOL     OW  926   0.193   4.918   0.358  0.0820  0.4656 -0.0922
  264SOL    HW1  927   0.098   4.919   0.356 -0.1414 -2.4706  1.9082
  264SOL    HW2  928   0.216   4.949   0.445  0.8344 -0.2157 -0.0279
  265SOL     OW  929   2.542   3.793   0.173  0.0673  0.8450 -0.1852
  265SOL    HW1  930   2.525   3.887   0.169  1.2952  1.0997  0.0734
  265SOL    HW2  931   2.529   3.770   0.265 -0.9767  0.5934 -0.3824
  266SOL     OW  932   3.095   0.683   2.575 -1.0362  0.0247 -0.2541
  266SOL    HW1  933   3.144   0.606   2.601 -1.0418  0.0502 -0.1699
  266SOL    HW2  934   3.028   0.649   2.515 -1.4644 -0.1279  0.3056
  267SOL     OW  935   0.086   0.382   2.257 -0.1740 -0.3282 -0.1237
  267SOL    HW1  936   0.141   0.460   2.264  1.3020 -1.4315  1.6543
  267SOL    HW2  937   0.097   0.352   2.167  2.0079 -0.3747  0.1189
  268SOL     OW  938   4.541   1.719   0.933 -0.2309 -0.1079  0.3206
  268SOL    HW1  939   4.493   1.766   0.864  0.9814 -1.2199 -1.3577
  268SOL    HW2  940   4.473   1.680   0.987 -1.2741 -0.8403 -1.4293
  269SOL     OW  941   2.706   3.063   2.005  0.5986 -0.2098  0.2605
  269SOL    HW1  942   2.753   3.136   1.964 -0.3960  0.1899 -0.2259
  269SOL    HW2  943   2.693   3.000   1.934  2.5525 -1.4789  0.9598
  270SOL     OW  944   2.497   3.751   2.468 -0.1524 -0.2163  0.0854
  270SOL    HW1  945   2.405   3.747   2.496 -0.6311  1.0361 -1.1519
  270SOL    HW2  946   2.528   3.661   2.475 -2.3086 -1.2581 -1.9620
  271SOL     OW  947   3.908   2.384   3.570  0.3220 -0.3537 -0.3241
  271SOL    HW1  948   3.819   2.379   3.533  0.7360  0.8203 -1.5693
  271SOL    HW2  949   3.963   2.343   3.503  1.1616  2.2869 -1.3942
  272SOL     OW  950   4.362   0.333   2.071  0.5440 -0.1482 -0.2649
  272SOL    HW1  951   4.289   0.277   2.097  0.4705  0.5116  1.0106
  272SOL    HW2  952   4.370   0.320   1.976 -2.0035  0.6823 -0.6473
  273SOL     OW  953   2.035   4.154   2.246  0.0059  0.0790  0.2917
  273SOL    HW1  954   2.101   4.222   2.241 -1.1086  1.1545 -0.6342
  273SOL    HW2  955   1.985   4.175   2.325  0.2388 -0.2262  0.5213
  274SOL     OW  956   1.281   1.447   3.505 -0.4213  0.1527  0.1031
  274SOL    HW1  957   1.299   1.475   3.415  1.5360  0.3836  0.5131
  274SOL    HW2  958   1.207   1.500   3.533  0.1631  1.4650 -0.7565
  275SOL     OW  959   4.964   0.540   1.118  0.1341  0.2637  0.6902
  275SOL    HW1  960   5.019   0.486   1.062 -0.1594 -1.7614  2.2213
  275SOL    HW2  961   4.957   0.624   1.072  0.1251 -1.1564 -2.1295
  276SOL     OW  962   2.371   3.746   0.635  0.3929  0.4074 -0.2219
  276SOL    HW1  963   2.277   3.762   0.640  0.3688  0.2313 -0.1010
  276SOL    HW2  964   2.398   3.787   0.553  0.3980  1.3808  0.2588
  277SOL     OW  965   4.016   4.622   3.278  0.3499  0.0409  0.6021
  277SOL    HW1  966   3.924   4.631   3.306 -0.2297  1.8886 -1.6083
  277SOL    HW2  967   4.024   4.529   3.255 -1.3973  0.0833 -0.3968
  278SOL     OW  968   1.390   4.345   4.841 -0.0735  0.2657  0.1975
  278SOL    HW1  969   1.396   4.386   4.755  2.5845  1.3757  0.8152
  278SOL    HW2  970   1.336   4.267   4.827 -0.2095  0.7373 -2.3172
  279SOL     OW  971   2.430   2.113   2.885 -0.0934 -0.6114  0.0199
  279SOL    HW1  972   2.470   2.034   2.922 -1.6937 -2.0912 -1.2483
  279SOL    HW2  973   2.498   2.150   2.829  0.5622 -1.2879  0.3421
  280SOL     OW  974   2.783   3.246   1.054 -0.5719 -0.6637  0.7228
  280SOL    HW1  975   2.816   3.222   1.141 -1.6994 -2.0966  0.7861
  280SOL    HW2  976   2.860   3.246   0.998  0.4832  1.9452  1.9956
  281SOL     OW  977   0.244   3.630   4.249  0.1840 -0.5249 -0.4670
  281SOL    HW1  978   0.231   3.558   4.188 -2.7503  1.0611 -1.9657
  281SOL    HW2  979   0.291   3.697   4.199  1.4332 -0.7458  0.3787
  282SOL     OW  980   1.801   0.326   2.870  0.0539  0.4940  0.0610
  282SOL    HW1  981   1.816   0.376   2.790  0.0430  0.1055 -0.1868
  282SOL    HW2  982   1.820   0.235   2.846  2.7631  0.6651  1.1705
  283SOL     OW  983   3.386   0.595   1.353 -0.8968 -0.1685  0.1476
  283SOL    HW1  984   3.361   0.614   1.263  0.2908  3.0058  0.3757
  283SOL    HW2  985   3.308   0.614   1.404 -0.4639  2.0508  0.0970
  284SOL     OW  986   4.189   1.990   5.052  0.4209  0.1352  0.7183
  284SOL    HW1  987   4.158   2.081   5.057  0.6977  0.4211 -1.5424
  284SOL    HW2  988   4.275   1.997   5.010  0.3701 -1.1811  0.3496
  285SOL     OW  989   3.172   1.985   4.116  0.2108 -0.4199  0.0966
  285SOL    HW1  990   3.267   1.992   4.123  0.3798  1.4641 -2.6013
  285SOL    HW2  991   3.141   1.999   4.206  2.4264 -0.1477  0.8866
  286SOL     OW  992   1.273   1.546   4.849  0.0604 -0.4353  0.3034
  286SOL    HW1  993   1.193   1.582   4.887 -0.5189 -0.2729 -1.0420
  286SOL    HW2  994   1.306   1.487   4.917  0.4990  1.8060  2.1553
  287SOL     OW  995   2.051   4.877   1.900 -0.3659 -0.1714  0.3655
  287SOL    HW1  996   2.047   4.787   1.867 -0.5932  0.1141 -0.4103
  287SOL    HW2  997   2.123   4.917   1.851 -0.1921  0.0448  0.7904
  288SOL     OW  998   3.351   1.798   2.557 -0.6351 -0.2147  0.4412
  288SOL    HW1  999   3.339   1.789   2.651 -0.6894 -0.3058  0.4257
  288SOL    HW2 1000   3.440   1.833   2.548 -1.2542  1.4610  0.5896
  289SOL     OW 1001   3.012   3.054   0.490  0.7900 -0.2128  0.2535
  289SOL    HW1 1002   2.952   3.024   0.558  0.5471 -0.2316  0.0305
  289SOL    HW2 1003   3.001   3.149   0.487 -1.2318 -0.4158 -1.6296
  290SOL     OW 1004   4.321   3.137   1.703 -0.4163  0.4277  0.8346
  290SOL    HW1 1005   4.304   3.079   1.629 -0.3024 -1.1863  2.0069
  290SOL    HW2 1006   4.417   3.140   1.709 -0.4140  1.0113  0.5981
  291SOL     OW 1007   3.114   0.383   2.138 -0.5989 -0.0555  0.0359
  291SOL    HW1 1008   3.028   0.382   2.179 -0.6800 -3.5958  0.0913
  291SOL    HW2 1009   3.166   0.320   2.189  0.8018 -0.9112 -2.2439
  292SOL     OW 1010   4.014   4.792   4.669 -0.0854 -0.5140  0.1318
  292SOL    HW1 1011   3.980   4.817   4.583  2.4237  0.3916 -0.6552
  292SOL    HW2 1012   4.002   4.869   4.723  0.9320 -0.0839 -0.2346
  293SOL     OW 1013   0.036   0.493   1.759 -0.4370 -0.0833 -0.1055
  293SOL    HW1 1014  -0.053   0.480   1.790 -0.8229 -0.3052 -1.2717
  293SOL    HW2 1015   0.051   0.588   1.768 -1.1378  0.0991 -0.7863
  294SOL     OW 1016   4.465   2.896   3.781  0.4901 -0.2055  0.5763
  294SOL    HW1 1017   4.538   2.854   3.735  1.8534 -0.5752  2.9030
  294SOL    HW2 1018   4.461   2.984   3.744 -1.3649 -1.6892 -3.2404
  295SOL     OW 1019   4.915   3.303   0.641 -0.4195  0.1074  0.0403
  295SOL    HW1 1020   4.931   3.319   0.548 -2.0792  1.9766  0.0146
  295SOL    HW2 1021   4.864   3.379   0.670  1.5134  0.4885  2.9025
  296SOL     OW 1022   1.007   0.460   1.100 -0.4507  0.5969  0.0466
  296SOL    HW1 1023   1.053   0.508   1.031  1.7046  1.0807  1.7181
  296SOL    HW2 1024   0.925   0.431   1.058  1.1008  0.1168 -2.9587
  297SOL     OW 1025   1.679   2.230   3.591  0.3775  0.1760  0.1840
  297SOL    HW1 1026   1.746   2.289   3.625  0.1628  0.8238 -0.4922
  297SOL    HW2 1027   1.720   2.143   3.593 -0.4867 -0.3982  4.6416
  298SOL     OW 1028   4.372   2.337   2.440 -0.0403 -0.0315 -0.0460
  298SOL    HW1 1029   4.348   2.344   2.348 -0.7669 -0.6595  0.0820
  298SOL    HW2 1030   4.328   2.411   2.482 -0.7137 -0.4348 -0.0215
  299SOL     OW 1031   4.212   4.841   1.014 -0.3532  0.1148 -0.4220
  299SOL    HW1 1032   4.223   4.922   1.062  1.1634 -0.6592  0.6066
  299SOL    HW2 1033   4.120   4.817   1.028 -1.0714  2.0212 -1.4510
  300SOL     OW 1034   1.862   0.882   1.443  0.2022  0.6121  0.0745
  300SOL    HW1 1035   1.936   0.893   1.502 -0.0552  0.2557  0.4707
  300SOL    HW2 1036   1.796   0.945   1.474  0.0075  0.3163  0.2619
  301SOL     OW 1037   3.187   3.423   4.299 -0.0083  0.4623  0.0264
  301SOL    HW1 1038   3.176   3.517   4.291  0.9330  0.7034  1.2007
  301SOL    HW2 1039   3.101   3.386   4.278 -0.0036  1.4430 -2.0246
  302SOL     OW 1040   2.001   1.832   0.992 -0.1738  0.4835  0.1853
  302SOL    HW1 1041   1.962   1.817   0.905  1.4152  0.4400 -0.5521
  302SOL    HW2 1042   1.933   1.877   1.041 -0.4982  2.1636 -1.6800
  303SOL     OW 1043   4.653   1.095   0.200 -0.6218 -0.4094 -0.5381
  303SOL    HW1 1044   4.700   1.155   0.257 -0.5157 -2.6274  1.9239
  303SOL    HW2 1045   4.704   1.095   0.118  0.8951  0.8008  0.3479
  304SOL     OW 1046   1.893   1.853   4.943  0.5070 -0.2046  0.4293
  304SOL    HW1 1047   1.876   1.916   5.013  0.5647  0.2777  0.0110
  304SOL    HW2 1048   1.820   1.790   4.949 -0.6938  1.0593 -0.4719
  305SOL     OW 1049   0.477   3.840   0.237 -0.2555  0.4241 -0.1490
  305SOL    HW1 1050   0.428   3.799   0.165  0.7717 -1.4840  0.1796
  305SOL    HW2 1051   0.413   3.898   0.278 -0.5687  2.4753 -3.2385
  306SOL     OW 1052   2.095   4.241   3.186  0.0491  0.2078 -0.1586
  306SOL    HW1 1053   2.171   4.285   3.149 -1.4447  3.3047  0.1358
  306SOL    HW2 1054   2.020   4.294   3.158 -1.6863 -0.6316  2.4654
  307SOL     OW 1055   4.885   2.071   4.909  0.7431 -1.3418 -0.0829
  307SOL    HW1 1056   4.971   2.103   4.884 -0.5848  3.0823  0.2119
  307SOL    HW2 1057   4.854   2.132   4.975 -3.9688 -0.3763 -2.6657
  308SOL     OW 1058   5.053   2.611   4.712 -0.2478  0.2491  0.3062
  308SOL    HW1 1059   5.043   2.625   4.806  0.4666 -1.7802  0.7305
  308SOL    HW2 1060   4.980   2.553   4.688  1.6676 -2.3968  0.4509
  309SOL     OW 1061   0.156   0.443   0.466  0.0669 -0.0306  0.1898
  309SOL    HW1 1062   0.210   0.509   0.422  0.1600  0.2798  0.7587
  309SOL    HW2 1063   0.068   0.457   0.432  0.1338  0.2238  0.1210
  310SOL     OW 1064   2.806   1.478   3.545  0.2790  0.1959 -0.0836
  310SOL    HW1 1065   2.834   1.561   3.585 -0.7868  0.5098  0.0492
  310SOL    HW2 1066   2.728   1.501   3.495 -0.7239 -0.9266  0.8919
  311SOL     OW 1067   2.774   0.348   4.769 -0.1427  0.3512 -0.4927
  311SOL    HW1 1068   2.817   0.422   4.812 -0.3264  0.6157 -0.7643
  311SOL    HW2 1069   2.845   0.285   4.753  0.0363  0.5259 -0.3891
  312SOL     OW 1070   1.112   2.326   4.711  0.0881  0.1071  0.1951
  312SOL    HW1 1071   1.049   2.255   4.697 -1.7849  2.0228 -1.7657
  312SOL    HW2 1072   1.080   2.371   4.789 -1.6592  1.5878 -1.2620
  313SOL     OW 1073   4.869   1.459   0.165  0.4003 -0.0003 -0.3977
  313SOL    HW1 1074   4.834   1.378   0.127  0.7477  0.6622 -2.2608
  313SOL    HW2 1075   4.793   1.518   0.168  0.2054 -0.2835  0.7129
  314SOL     OW 1076   1.176   4.861   2.711  0.1969 -0.7923 -0.1601
  314SOL    HW1 1077   1.100   4.822   2.668 -2.9590  0.5013  3.6007
  314SOL    HW2 1078   1.206   4.794   2.773 -1.3826  0.3631  2.0178
  315SOL     OW 1079   1.608   0.464   0.461 -0.0940 -0.6811  0.8103
  315SOL    HW1 1080   1.606   0.558   0.440 -0.0034 -0.6119  1.1051
  315SOL    HW2 1081   1.696   0.449   0.495  0.9787 -1.4893 -1.9848
  316SOL     OW 1082   2.691   4.385   0.177  0.4144 -0.1461  0.4181
  316SOL    HW1 1083   2.698   4.295   0.146  0.9779  0.2742 -0.7412
  316SOL    HW2 1084   2.597   4.402   0.182  0.2952 -0.2761 -0.9964
  317SOL     OW 1085   1.930   0.102   4.114  0.5953  0.0784  0.1407
  317SOL    HW1 1086   1.900   0.133   4.029  0.0180 -2.3764 -0.6154
  317SOL    HW2 1087   1.850   0.079   4.161  1.0097 -0.8650  0.4061
  318SOL     OW 1088   3.851   2.705   2.519 -0.5050 -0.1651 -0.4774
  318SOL    HW1 1089   3.868   2.638   2.452 -0.0704 -1.1668  0.5945
  318SOL    HW2 1090   3.937   2.745   2.534 -0.0621 -1.6462  1.2150
  319SOL     OW 1091   2.863   1.575   1.312 -0.4767  0.3654  0.8360
  319SOL    HW1 1092   2.848   1.630   1.389 -2.9585 -2.1212  2.3145
  319SOL    HW2 1093   2.776   1.544   1.287  0.5662 -1.1010 -1.3021
  320SOL     OW 1094   0.802   2.234   0.226 -0.2910  0.2858  0.0942
  320SOL    HW1 1095   0.717   2.259   0.191 -0.7565 -1.1252  0.1607
  320SOL    HW2 1096   0.812   2.142   0.202  0.6825  0.0999  1.1227
  321SOL     OW 1097   1.800   1.997   1.116 -0.6612  0.3171 -0.0674
  321SOL    HW1 1098   1.747   2.075   1.099  0.6721  0.9451 -1.6717
  321SOL    HW2 1099   1.863   2.025   1.182 -0.7003  0.3634 -0.0493
  322SOL     OW 1100   1.326   1.008   1.134 -0.2227  0.4928  0.3048
  322SOL    HW1 1101   1.314   1.080   1.197 -0.5599  1.7190 -1.1056
  322SOL    HW2 1102   1.392   0.952   1.174  1.8274  2.8347  0.4327
  323SOL     OW 1103   2.178   3.039   1.211 -0.2425 -0.9676 -0.8416
  323SOL    HW1 1104   2.181   2.982   1.134 -2.0975 -2.1725 -0.0920
  323SOL    HW2 1105   2.137   3.120   1.179  1.8249 -0.2126 -1.7651
  324SOL     OW 1106   2.021   1.485   0.582  0.0977  0.3438 -0.4583
  324SOL    HW1 1107   2.112   1.468   0.607 -0.3471 -0.7734  0.4971
  324SOL    HW2 1108   1.969   1.443   0.650 -1.1572 -0.3023 -1.7620
  325SOL     OW 1109   1.387   3.849   0.139  0.4635  1.0683 -0.7631
  325SOL    HW1 1110   1.318   3.915   0.137  0.5343  1.1814  0.2029
  325SOL    HW2 1111   1.361   3.786   0.073  0.1647  1.8303 -1.3960
  326SOL     OW 1112   1.400   2.097   0.829  0.2735  0.3902  0.7027
  326SOL    HW1 1113   1.463   2.128   0.764 -0.1685  0.2681  0.1997
  326SOL    HW2 1114   1.450   2.038   0.885  0.8914  1.2588  1.0763
  327SOL     OW 1115   4.240   4.695   3.484 -0.4111  0.4777  0.0936
  327SOL    HW1 1116   4.199   4.627   3.430  1.9001 -0.1209 -1.0493
  327SOL    HW2 1117   4.264   4.764   3.422 -0.3127  1.1106  0.8196
  328SOL     OW 1118   1.317   3.128   2.719 -0.6808  0.3481  0.8745
  328SOL    HW1 1119   1.308   3.209   2.768 -1.3854  0.8829 -0.1150
  328SOL    HW2 1120   1.230   3.112   2.683 -0.2927 -0.2940  0.2040
  329SOL     OW 1121   4.439   3.351   2.220 -0.3192  0.1439 -0.0487
  329SOL    HW1 1122   4.382   3.298   2.165 -2.7563  1.3516  1.1677
  329SOL    HW2 1123   4.504   3.386   2.160 -1.2363 -0.7657 -1.6426
  330SOL     OW 1124   1.649   0.736   1.743 -0.4545  0.1851  0.1762
  330SOL    HW1 1125   1.569   0.688   1.721  0.1769 -1.4318  1.2070
  330SOL    HW2 1126   1.659   0.799   1.671 -1.8358 -0.5832 -0.7518
  331SOL     OW 1127   2.026   4.538   0.149 -0.1480 -0.6020  0.2197
  331SOL    HW1 1128   2.114   4.565   0.127 -0.0300  2.6114  3.6606
  331SOL    HW2 1129   1.969   4.589   0.092  0.2357  0.5476  0.8307
  332SOL     OW 1130   3.849   0.537   1.296 -0.4503  0.4622 -0.1163
  332SOL    HW1 1131   3.810   0.481   1.228  0.6960 -0.4107 -0.0980
  332SOL    HW2 1132   3.798   0.618   1.293  0.5186  1.0963 -3.1174
  333SOL     OW 1133   4.365   2.765   2.747  0.1749  0.2807  0.2368
  333SOL    HW1 1134   4.429   2.730   2.685 -0.7928  1.5142 -1.5378
  333SOL    HW2 1135   4.369   2.859   2.735 -4.2978  0.3890 -2.5477
  334SOL     OW 1136   3.426   2.926   4.700 -0.0734 -0.0709 -0.2330
  334SOL    HW1 1137   3.350   2.952   4.647  0.2197  1.1155 -0.0791
  334SOL    HW2 1138   3.425   2.984   4.775 -0.9297 -2.2482  1.5380
  335SOL     OW 1139   2.846   1.943   3.004 -0.2004  0.9856  0.5092
  335SOL    HW1 1140   2.925   1.902   2.969 -1.2105  0.6364 -1.5292
  335SOL    HW2 1141   2.869   1.969   3.093  1.3198 -1.5907  0.9542
  336SOL     OW 1142   1.359   4.653   2.843  0.0991  0.7406  0.5690
  336SOL    HW1 1143   1.405   4.715   2.786  0.1763  0.4879  0.3517
  336SOL    HW2 1144   1.414   4.575   2.842 -0.2621  0.4835  0.4179
  337SOL     OW 1145   2.169   4.272   2.666  0.1882 -1.0068 -0.0181
  337SOL    HW1 1146   2.174   4.192   2.614  2.1504  0.4725 -2.2855
  337SOL    HW2 1147   2.246   4.269   2.722  0.7216 -0.3405 -0.7059
  338SOL     OW 1148   4.137   0.589   0.322  0.3361 -0.2693  0.2641
  338SOL    HW1 1149   4.173   0.652   0.260 -0.1947 -0.9359 -0.7455
  338SOL    HW2 1150   4.206   0.523   0.332  0.7115  0.2175  0.9681
  339SOL     OW 1151   4.244   2.755   1.799 -0.3353 -0.3821  0.0189
  339SOL    HW1 1152   4.209   2.708   1.724  1.2796  0.2047 -1.1631
  339SOL    HW2 1153   4.298   2.691   1.845 -1.0369 -0.6439  0.4897
  340SOL     OW 1154   3.797   1.826   3.297 -0.3557 -0.3531  0.6395
  340SOL    HW1 1155   3.847   1.832   3.379 -0.5899 -2.8847  1.0385
  340SOL    HW2 1156   3.752   1.742   3.302 -1.1831 -0.1206 -1.6725
  341SOL     OW 1157   2.507   0.277   1.482  0.5057  0.9216  0.4137
  341SOL    HW1 1158   2.533   0.232   1.402  2.1885  1.1711  0.7728
  341SOL    HW2 1159   2.458   0.212   1.532 -2.7264  1.4501 -1.7921
  342SOL     OW 1160   2.463   0.273   0.693  0.4889 -0.3660 -0.0204
  342SOL    HW1 1161   2.531   0.206   0.699  1.8820  0.9553 -0.0871
  342SOL    HW2 1162   2.509   0.355   0.714 -1.3618  0.4498  1.1111
  343SOL     OW 1163   2.877   2.410   1.193  0.8743  0.0695  0.2385
  343SOL    HW1 1164   2.838   2.481   1.142 -0.0380 -0.7555 -0.2366
  343SOL    HW2 1165   2.840   2.330   1.156  1.1569 -0.6123  1.3810
  344SOL     OW 1166   0.960   2.885   2.540  0.6163  0.0487 -0.0709
  344SOL    HW1 1167   0.998   2.801   2.516  1.1417  0.0358  0.7591
  344SOL    HW2 1168   0.913   2.914   2.462 -2.1531 -2.4003  0.4867
  345SOL     OW 1169   1.094   0.032   2.292  0.0259  0.4422 -0.2012
  345SOL    HW1 1170   1.037  -0.014   2.353  0.5017  0.2237  0.0844
  345SOL    HW2 1171   1.038   0.097   2.251 -0.0208  1.4627  1.3902
  346SOL     OW 1172   0.246   1.649   1.163 -0.0932 -0.5449  0.0304
  346SOL    HW1 1173   0.159   1.621   1.136 -0.4234 -1.0449  1.4999
  346SOL    HW2 1174   0.256   1.738   1.128 -1.2380 -0.4356 -0.0297
  347SOL     OW 1175   2.283   3.942   0.918  0.1903  0.1423 -0.2559
  347SOL    HW1 1176   2.239   3.911   0.839  0.3548 -0.5861 -0.0602
  347SOL    HW2 1177   2.277   3.870   0.980  1.6217  0.0271 -0.2085
  348SOL     OW 1178   1.952   2.614   1.715  1.1726 -0.6417 -0.1762
  348SOL    HW1 1179   1.923   2.552   1.648 -0.8097  0.3367 -0.3152
  348SOL    HW2 1180   1.908   2.585   1.795  1.1840 -0.1309  0.0204
  349SOL     OW 1181   4.735   4.729   3.517 -0.1165 -0.0104  0.1074
  349SOL    HW1 1182   4.694   4.815   3.521  0.3514  0.2297 -0.2004
  349SOL    HW2 1183   4.824   4.746   3.485  0.3766 -0.4655  1.1802
  350SOL     OW 1184   0.791   0.646   4.741  0.6868 -0.1312  0.6237
  350SOL    HW1 1185   0.773   0.554   4.722  0.2620  0.3796 -1.7746
  350SOL    HW2 1186   0.788   0.652   4.837 -1.9942 -2.0810  0.7761
  351SOL     OW 1187   0.949   3.091   4.089 -0.3104 -0.5329 -0.3763
  351SOL    HW1 1188   0.895   3.084   4.167 -1.3957  1.5894 -0.8697
  351SOL    HW2 1189   1.039   3.087   4.121 -0.6031  3.3596  1.5122
  352SOL     OW 1190   1.055   2.433   1.819  0.4731 -0.1853  0.2584
  352SOL    HW1 1191   0.960   2.423   1.818  0.5506 -1.1055  0.7757
  352SOL    HW2 1192   1.089   2.345   1.803  1.2216 -0.2293  1.8827
  353SOL     OW 1193   0.280   0.865   2.778  0.5923  0.4118 -0.1487
  353SOL    HW1 1194   0.185   0.860   2.781  0.3913  1.7306 -2.0670
  353SOL    HW2 1195   0.304   0.911   2.859 -0.3647 -0.1630  0.4773
  354SOL     OW 1196   1.218   1.824   3.912  0.2354 -0.5787 -0.1035
  354SOL    HW1 1197   1.185   1.830   3.823 -0.4057  0.6541  0.1877
  354SOL    HW2 1198   1.248   1.913   3.933  1.4974 -1.1132  0.5000
  355SOL     OW 1199   3.248   3.567   4.003 -0.2242  0.1326 -0.2410
  355SOL    HW1 1200   3.257   3.640   4.064 -0.4449 -1.2709  1.5626
  355SOL    HW2 1201   3.162   3.530   4.023 -0.5482 -0.0132 -1.8300
  356SOL     OW 1202   1.674   3.274   3.939 -0.1054 -0.2256 -0.2564
  356SOL    HW1 1203   1.687   3.306   3.850 -0.5096  1.5341  0.2689
  356SOL    HW2 1204   1.749   3.216   3.956  2.5269  2.8914 -0.2421
  357SOL     OW 1205   2.270   2.273   3.035  0.3194  0.5091  0.5700
  357SOL    HW1 1206   2.316   2.201   2.992  0.0477  1.0176 -0.6177
  357SOL    HW2 1207   2.224   2.317   2.964  0.6789  2.0159  1.2418
  358SOL     OW 1208   3.848   3.566   1.540 -0.0744  0.4737  0.1526
  358SOL    HW1 1209   3.777   3.508   1.564 -0.3885  0.8899  0.2499
  358SOL    HW2 1210   3.873   3.539   1.451 -0.3154  0.2902  0.1395
  359SOL     OW 1211   1.900   0.064   1.822 -0.5696 -0.4601  0.2516
  359SOL    HW1 1212   1.932  -0.026   1.830 -1.1170 -0.8837 -1.7959
  359SOL    HW2 1213   1.830   0.059   1.757  0.5228  1.7002 -1.2024
  360SOL     OW 1214   4.117   2.524   0.348  0.2126 -0.7430 -0.2963
  360SOL    HW1 1215   4.146   2.433   0.349 -1.5646 -1.3707 -1.4516
  360SOL    HW2 1216   4.191   2.572   0.313  0.8222 -1.8912 -0.6347
  361SOL     OW 1217   3.399   2.289   1.357  0.6471  0.1484  0.2391
  361SOL    HW1 1218   3.424   2.239   1.280  1.8294  0.6528  0.2690
  361SOL    HW2 1219   3.312   2.323   1.337 -0.0908 -1.7281  0.1522
  362SOL     OW 1220   4.556   2.249   1.168  0.1342 -0.3481  0.1778
  362SOL    HW1 1221   4.604   2.299   1.234 -0.1285 -2.5030  2.1402
  362SOL    HW2 1222   4.502   2.314   1.123 -0.1980  1.1745  2.5843
  363SOL     OW 1223   1.340   3.992   4.480  0.6921 -0.2315  0.1274
  363SOL    HW1 1224   1.266   4.010   4.422  0.9544  3.3598  0.6961
  363SOL    HW2 1225   1.301   3.986   4.567  0.9390  0.7482  0.3141
  364SOL     OW 1226   0.697   4.408   4.336 -0.5321  0.2896  0.0602
  364SOL    HW1 1227   0.670   4.343   4.401 -1.8481  0.3957 -0.3595
  364SOL    HW2 1228   0.684   4.492   4.379  1.1239  0.3178  0.5848
  365SOL     OW 1229   0.624   1.086   3.265  0.0357  0.1591  0.2644
  365SOL    HW1 1230   0.645   1.114   3.354 -0.6421 -0.2630  0.5631
  365SOL    HW2 1231   0.585   1.163   3.224  1.9953  0.9187 -0.2614
  366SOL     OW 1232   1.355   0.219   1.763  0.5351  0.0577 -0.4348
  366SOL    HW1 1233   1.446   0.209   1.734  0.2771 -0.9855 -0.9075
  366SOL    HW2 1234   1.309   0.145   1.724 -0.5797  0.7233 -0.4137
  367SOL     OW 1235   4.847   3.566   1.479  0.5606 -0.2956  0.2925
  367SOL    HW1 1236   4.882   3.569   1.390  0.1162  0.3153  0.1269
  367SOL    HW2 1237   4.868   3.478   1.510 -0.3162 -0.9464 -0.8469
  368SOL     OW 1238   0.808   3.060   4.305  0.9149 -0.0815 -0.0147
  368SOL    HW1 1239   0.736   3.090   4.361 -0.4488 -2.2213 -0.4829
  368SOL    HW2 1240   0.850   2.990   4.356 -0.1777 -1.8734 -1.4583
  369SOL     OW 1241   1.958   4.431   2.822 -0.1941 -0.2395 -0.0232
  369SOL    HW1 1242   2.035   4.390   2.782 -1.2987 -1.4303 -1.0227
  369SOL    HW2 1243   1.959   4.399   2.913 -1.8678 -3.9710 -1.1262
  370SOL     OW 1244   2.965   2.605   2.201  0.2038  0.4053  0.3158
  370SOL    HW1 1245   2.935   2.682   2.249 -0.9772  0.8508 -1.0697
  370SOL    HW2 1246   2.941   2.622   2.110  0.3593 -1.3856 -0.1057
  371SOL     OW 1247   1.076   1.339   0.966 -0.4513 -0.4941 -0.2620
  371SOL    HW1 1248   1.034   1.316   1.049 -0.9574  1.9721  0.2293
  371SOL    HW2 1249   1.126   1.261   0.942 -2.1447 -2.1048  1.1544
  372SOL     OW 1250   0.166   2.603   1.864 -0.1269 -0.3832 -0.0278
  372SOL    HW1 1251   0.259   2.583   1.853 -0.0556 -0.2835  0.3519
  372SOL    HW2 1252   0.145   2.571   1.952 -0.7300 -1.4071 -0.5353
  373SOL     OW 1253   0.611   1.620   0.030  0.7730  0.1970  0.3427
  373SOL    HW1 1254   0.651   1.700  -0.003  0.7216 -1.0241 -3.0819
  373SOL    HW2 1255   0.682   1.575   0.076  1.4046  1.1887  0.3718
  374SOL     OW 1256   4.298   3.521   3.664  0.4321  0.3863 -0.3185
  374SOL    HW1 1257   4.310   3.434   3.701  1.6943  0.1009 -1.3145
  374SOL    HW2 1258   4.379   3.568   3.686 -0.7791  1.8053  1.4128
  375SOL     OW 1259   3.088   0.156   0.362 -0.7286  0.4335 -0.5814
  375SOL    HW1 1260   3.106   0.249   0.347 -0.5897  0.2406 -1.6421
  375SOL    HW2 1261   2.994   0.147   0.346 -0.6436  0.2882 -0.9879
  376SOL     OW 1262   4.665   0.693   1.052  0.5323  0.5556  0.3162
  376SOL    HW1 1263   4.717   0.616   1.074 -1.4195 -0.8528  0.3271
  376SOL    HW2 1264   4.634   0.676   0.963 -0.0712  1.2293  0.3892
  377SOL     OW 1265   0.668   1.504   2.425 -0.7743 -0.3487  0.0591
  377SOL    HW1 1266   0.576   1.477   2.416 -0.3616 -2.2622  1.1286
  377SOL    HW2 1267   0.687   1.494   2.518  0.8789 -1.2830 -0.3400
  378SOL     OW 1268   4.297   4.071   4.837 -0.4185  0.2344 -0.1969
  378SOL    HW1 1269   4.269   4.126   4.910 -0.8631 -0.8216  0.4420
  378SOL    HW2 1270   4.393   4.077   4.838 -0.4557  0.9562 -0.1220
  379SOL     OW 1271   3.507   1.025   2.357  0.2608  0.2026 -0.1130
  379SOL    HW1 1272   3.467   0.947   2.394 -0.8521  1.8342  2.4466
  379SOL    HW2 1273   3.490   1.020   2.263  1.8913 -3.4695 -0.3906
  380SOL     OW 1274   3.220   0.878   3.147  0.3665 -0.4851 -0.3017
  380SOL    HW1 1275   3.258   0.791   3.159  0.3383 -0.5675 -0.7660
  380SOL    HW2 1276   3.231   0.922   3.231  1.8427 -0.3714 -0.5262
  381SOL     OW 1277   3.920   1.826   2.851 -0.4007  0.5939  0.0213
  381SOL    HW1 1278   3.879   1.756   2.801 -0.0907  0.2277  0.2755
  381SOL    HW2 1279   4.001   1.846   2.804 -0.1874  0.3590  0.2865
  382SOL     OW 1280   3.884   1.553   1.813  0.1400  0.0073  0.7118
  382SOL    HW1 1281   3.908   1.468   1.848 -0.8123 -0.2870  0.6873
  382SOL    HW2 1282   3.828   1.533   1.737  2.1953  0.6302 -1.0464
  383SOL     OW 1283   4.055   5.003   1.559 -0.4188 -0.7132  0.2866
  383SOL    HW1 1284   4.123   4.940   1.585 -0.0867 -0.3370  0.3508
  383SOL    HW2 1285   4.105   5.080   1.533 -0.7870 -0.7737 -0.6098
  384SOL     OW 1286   4.666   2.252   2.215 -0.1892 -0.0905 -0.3404
  384SOL    HW1 1287   4.668   2.193   2.290  0.2865 -0.6372 -0.7637
  384SOL    HW2 1288   4.587   2.227   2.167  0.2781 -0.7503 -0.7897
  385SOL     OW 1289   5.027   5.070   1.916  0.4594 -0.6092 -0.1172
  385SOL    HW1 1290   5.036   4.984   1.956  0.2386 -0.4061  0.3708
  385SOL    HW2 1291   4.970   5.055   1.840 -1.7471 -0.4616  1.4157
  386SOL     OW 1292   3.340   2.947   3.623 -0.1886 -0.3133  0.8263
  386SOL    HW1 1293   3.340   2.961   3.528 -0.4532 -1.1892  0.6937
  386SOL    HW2 1294   3.420   2.990   3.653  0.4776 -0.9918  0.0603
  387SOL     OW 1295   0.979   3.174   3.500  0.2664  0.3057  0.4721
  387SOL    HW1 1296   0.918   3.236   3.461 -2.7625 -2.1901  0.8182
  387SOL    HW2 1297   0.962   3.179   3.594 -2.3859 -2.9872  0.3554
  388SOL     OW 1298   2.784   4.369   4.097  0.0618  0.4012  0.5085
  388SOL    HW1 1299   2.739   4.333   4.173 -2.0140 -0.5994 -1.1039
  388SOL    HW2 1300   2.789   4.297   4.035 -1.5017  2.0250 -1.6551
  389SOL     OW 1301   2.714   4.599   3.983  0.7036  0.0315  0.5489
  389SOL    HW1 1302   2.725   4.514   4.026 -0.3718 -0.2009  0.4110
  389SOL    HW2 1303   2.629   4.631   4.015 -1.7291 -1.5227 -3.5260
  390SOL     OW 1304   4.191   1.362   1.497 -0.2848  0.3289  0.2449
  390SOL    HW1 1305   4.168   1.383   1.406 -0.5828 -0.0694  0.2230
  390SOL    HW2 1306   4.247   1.285   1.490  1.0849  1.2924  0.2999
  391SOL     OW 1307   0.027   1.266   0.759 -0.5142  0.7530 -0.7106
  391SOL    HW1 1308   0.004   1.225   0.843 -1.4861  0.3353 -1.1725
  391SOL    HW2 1309  -0.017   1.351   0.762 -0.2010  0.9152 -0.6289
  392SOL     OW 1310   4.420   4.114   4.527 -0.0088  0.0238  0.1064
  392SOL    HW1 1311   4.416   4.026   4.489 -0.8458 -0.9302  2.2161
  392SOL    HW2 1312   4.479   4.105   4.602  1.0205  1.6438 -0.4689
  393SOL     OW 1313   2.303   1.312   4.420  0.3189 -0.1421  0.0142
  393SOL    HW1 1314   2.334   1.270   4.340  0.6221 -0.6697  0.3945
  393SOL    HW2 1315   2.366   1.284   4.487 -0.8260 -1.0302  0.7617
  394SOL     OW 1316   4.949   0.033   0.562  0.0282  0.0927 -0.4196
  394SOL    HW1 1317   5.003   0.028   0.642 -2.0032  0.0982  1.0296
  394SOL    HW2 1318   4.953  -0.054   0.524  1.2310  0.1578 -0.4755
  395SOL     OW 1319   3.786   0.843   1.365 -0.6959  0.3822  0.3250
  395SOL    HW1 1320   3.868   0.808   1.401 -1.0498  0.0964  0.8562
  395SOL    HW2 1321   3.814   0.917   1.311 -0.1812  1.1828  1.6292
  396SOL     OW 1322   2.318   3.220   4.880  0.3731  0.5936  0.1054
  396SOL    HW1 1323   2.266   3.142   4.863  1.1804  0.1340 -0.3685
  396SOL    HW2 1324   2.260   3.279   4.928 -0.9144  0.5306 -1.3050
  397SOL     OW 1325   4.966   2.603   2.861  0.3170  0.1126 -0.7223
  397SOL    HW1 1326   5.029   2.635   2.796  0.2990 -0.4425 -1.0185
  397SOL    HW2 1327   4.992   2.512   2.876 -0.1621  0.0058 -0.5317
  398SOL     OW 1328   0.877   3.685   0.533  0.1612  0.1063 -0.4220
  398SOL    HW1 1329   0.899   3.626   0.604  0.6118  0.7425 -0.0230
  398SOL    HW2 1330   0.825   3.632   0.472  0.3325 -0.6146  0.0563
  399SOL     OW 1331   0.734   3.182   5.008 -0.0907  0.2558 -0.1362
  399SOL    HW1 1332   0.648   3.212   4.980 -1.6553 -1.2455  2.5989
  399SOL    HW2 1333   0.749   3.102   4.958 -0.5113  0.2827 -0.3083
  400SOL     OW 1334   3.615   4.693   3.868  0.8714 -0.1557 -0.2076
  400SOL    HW1 1335   3.661   4.625   3.819  0.7077  1.4298 -2.7453
  400SOL    HW2 1336   3.644   4.682   3.959  2.7035 -2.0426 -0.9640
  401SOL     OW 1337   3.420   1.652   0.898  0.6942 -0.1684 -0.5525
  401SOL    HW1 1338   3.348   1.592   0.918 -0.1830  0.6207 -1.2198
  401SOL    HW2 1339   3.492   1.595   0.873  0.6880 -1.0271  1.2369
  402SOL     OW 1340   4.424   3.829   3.911 -0.2799 -0.0753  0.6048
  402SOL    HW1 1341   4.365   3.804   3.840 -0.8303  2.3779  0.1059
  402SOL    HW2 1342   4.483   3.893   3.871  1.5184 -1.0462  1.5891
  403SOL     OW 1343   2.260   0.349   4.476  0.7000  0.5257 -0.1357
  403SOL    HW1 1344   2.266   0.303   4.560 -1.8716  0.8215  0.2952
  403SOL    HW2 1345   2.208   0.427   4.496  0.1654  0.6867 -1.9897
  404SOL     OW 1346   2.473   3.907   4.131 -0.4430 -0.6261 -0.3272
  404SOL    HW1 1347   2.439   3.929   4.044 -1.2215  0.8098  0.2970
  404SOL    HW2 1348   2.468   3.989   4.180 -2.1168 -1.8572  1.7432
  405SOL     OW 1349   2.087   1.371   2.070 -0.4422 -0.1655 -0.0052
  405SOL    HW1 1350   2.078   1.461   2.102 -1.1550 -0.2244 -0.0236
  405SOL    HW2 1351   2.051   1.317   2.140  0.1073 -0.4467  0.0607
  406SOL     OW 1352   0.962   4.323   3.297  0.0243  0.0560 -0.1578
  406SOL    HW1 1353   0.965   4.252   3.233 -1.4173 -1.2010  1.0785
  406SOL    HW2 1354   1.024   4.297   3.365  0.2839  0.5123 -0.2204
  407SOL     OW 1355   0.197   3.383   3.311  0.0933 -0.2935  0.8489
  407SOL    HW1 1356   0.276   3.334   3.288  0.1984 -0.6410  1.9180
  407SOL    HW2 1357   0.125   3.327   3.283  0.2156 -0.5572  1.0679
  408SOL     OW 1358   0.388   2.735   2.797  0.1720  0.1155  0.6389
  408SOL    HW1 1359   0.390   2.733   2.701 -2.1979 -1.0770  0.5388
  408SOL    HW2 1360   0.391   2.643   2.822  0.7150  0.4194  1.7289
  409SOL     OW 1361   0.397   0.429   1.201 -0.5444 -0.1030  0.1895
  409SOL    HW1 1362   0.448   0.426   1.120 -1.8373 -2.3779 -0.6247
  409SOL    HW2 1363   0.417   0.347   1.246 -0.8224  0.5564  1.5946
  410SOL     OW 1364   4.905   1.915   4.101  0.3039 -0.2641  0.2123
  410SOL    HW1 1365   4.828   1.859   4.091  0.3156  0.1634 -3.6232
  410SOL    HW2 1366   4.872   2.004   4.091  1.0028  0.0906  0.9663
  411SOL     OW 1367   4.157   2.815   2.918 -0.3589  1.1277  0.0527
  411SOL    HW1 1368   4.102   2.805   2.841 -1.2908  4.0723  0.2329
  411SOL    HW2 1369   4.227   2.874   2.890 -0.6346  2.1257  1.3692
  412SOL     OW 1370   1.453   3.737   0.414 -0.1430 -0.2148 -0.2086
  412SOL    HW1 1371   1.401   3.720   0.492  0.2798  0.0656  0.1426
  412SOL    HW2 1372   1.392   3.779   0.353  0.0289  1.6121  0.7941
  413SOL     OW 1373   4.426   0.447   4.965  0.2021  0.3296  0.5963
  413SOL    HW1 1374   4.447   0.353   4.968 -1.5214 -0.0818  0.6547
  413SOL    HW2 1375   4.475   0.479   4.889 -1.8780 -1.3904 -1.6491
  414SOL     OW 1376   4.442   4.690   3.690  0.0043  0.1435  0.3788
  414SOL    HW1 1377   4.362   4.698   3.639 -0.7312 -1.4882  1.1932
  414SOL    HW2 1378   4.512   4.711   3.629 -0.8176 -1.8994 -1.3921
  415SOL     OW 1379   2.866   4.965   0.206  0.0722  0.2320  0.6508
  415SOL    HW1 1380   2.797   4.991   0.267 -0.8468  3.1480 -1.4134
  415SOL    HW2 1381   2.855   5.023   0.131  5.2229  1.4024  0.4221
  416SOL     OW 1382   3.939   0.799   0.799  0.0051  0.2637  0.6443
  416SOL    HW1 1383   4.023   0.842   0.815 -0.5048  0.8383  1.8892
  416SOL    HW2 1384   3.947   0.714   0.842  0.6912 -0.6011 -1.0685
  417SOL     OW 1385   4.152   1.747   3.221 -0.1091  0.4314  0.5373
  417SOL    HW1 1386   4.185   1.774   3.136 -3.3820 -0.2992 -1.1120
  417SOL    HW2 1387   4.190   1.660   3.235 -0.7614 -0.1417 -1.0128
  418SOL     OW 1388   4.972   4.592   4.430  0.1477  0.0098  0.2029
  418SOL    HW1 1389   4.956   4.563   4.520 -1.4332  0.2894  0.0382
  418SOL    HW2 1390   4.893   4.639   4.405  1.3255  1.6190 -0.6841
  419SOL     OW 1391   4.782   1.640   0.819 -0.2341  0.4508 -0.3033
  419SOL    HW1 1392   4.775   1.645   0.723 -1.1980 -1.7189 -0.4241
  419SOL    HW2 1393   4.695   1.664   0.850 -0.0841  0.5993  0.0009
  420SOL     OW 1394   3.388   2.629   4.792 -0.2931  0.1584  0.8840
  420SOL    HW1 1395   3.432   2.570   4.853  1.7191  0.6520  0.0094
  420SOL    HW2 1396   3.409   2.717   4.825 -0.4500  0.4159  0.3063
  421SOL     OW 1397   3.943   0.303   1.019 -0.1490 -0.0688 -0.4463
  421SOL    HW1 1398   3.968   0.245   0.948  0.0474 -1.0302  0.3851
  421SOL    HW2 1399   3.849   0.318   1.008  0.3374  2.0855 -2.5260
  422SOL     OW 1400   4.419   3.061   4.401  0.3097 -0.6004  0.2863
  422SOL    HW1 1401   4.419   2.967   4.418  0.7316 -0.5478  0.5946
  422SOL    HW2 1402   4.340   3.076   4.348 -0.4146 -0.9429  1.2400
  423SOL     OW 1403   0.592   4.543   2.008  0.0405 -0.0892  0.4201
  423SOL    HW1 1404   0.522   4.484   2.034 -1.0748  0.5451 -1.0114
  423SOL    HW2 1405   0.637   4.564   2.090  0.3236 -2.6659  1.0140
  424SOL     OW 1406   4.366   2.458   4.052 -0.5143  0.0438 -0.5426
  424SOL    HW1 1407   4.406   2.528   3.999  0.1105 -0.2360 -0.4427
  424SOL    HW2 1408   4.318   2.505   4.120  0.6482  0.3746  0.0716
  425SOL     OW 1409   0.759   1.376   4.733  0.0132 -0.0430 -0.2257
  425SOL    HW1 1410   0.831   1.401   4.676 -0.0448  0.5463 -0.0441
  425SOL    HW2 1411   0.798   1.314   4.795 -0.2498 -1.9165 -1.8116
  426SOL     OW 1412   3.366   3.363   1.735 -0.2533  0.0040 -0.1552
  426SOL    HW1 1413   3.450   3.393   1.700  0.2469 -1.2618 -0.1084
  426SOL    HW2 1414   3.339   3.433   1.795  1.4190 -0.1121  0.8186
  427SOL     OW 1415   0.386   0.199   4.840 -0.0822 -0.6333  0.5530
  427SOL    HW1 1416   0.330   0.208   4.763  1.5899 -4.0509 -1.2850
  427SOL    HW2 1417   0.402   0.289   4.869 -0.1453  0.9173 -3.6209
  428SOL     OW 1418   2.104   2.550   2.420  0.0134  0.3072  0.8718
  428SOL    HW1 1419   2.120   2.579   2.331 -1.4416  0.1766  0.5377
  428SOL    HW2 1420   2.129   2.625   2.475  1.4944  0.1677  0.4301
  429SOL     OW 1421   4.482   3.280   2.846  0.6836 -0.3368  0.1116
  429SOL    HW1 1422   4.568   3.299   2.883  1.7059 -0.4697 -2.0346
  429SOL    HW2 1423   4.420   3.323   2.905  2.1814 -0.3978  1.8069
  430SOL     OW 1424   1.582   3.433   3.024 -0.3010  0.2454  0.0554
  430SOL    HW1 1425   1.601   3.346   2.988 -0.8412 -0.1008  0.5917
  430SOL    HW2 1426   1.667   3.466   3.053 -0.1686 -0.3123  0.3110
  431SOL     OW 1427   4.519   1.086   0.847  0.0305  0.5312 -0.2038
  431SOL    HW1 1428   4.470   1.023   0.795 -0.3190  0.9454 -0.3867
  431SOL    HW2 1429   4.459   1.112   0.917  1.0849 -1.3459  1.5123
  432SOL     OW 1430   2.391   1.340   3.737  0.5040  0.0516 -0.0970
  432SOL    HW1 1431   2.473   1.307   3.773  1.5155  2.3977 -0.0202
  432SOL    HW2 1432   2.347   1.263   3.700  2.1179 -1.4663  1.0221
  433SOL     OW 1433   2.841   2.499   4.728  0.0940  0.3439  0.0849
  433SOL    HW1 1434   2.911   2.537   4.673  0.6752 -0.2188  0.4240
  433SOL    HW2 1435   2.871   2.411   4.747 -0.0066  0.5915  1.4761
  434SOL     OW 1436   1.579   1.752   1.420  0.1064 -0.0310  0.0959
  434SOL    HW1 1437   1.635   1.680   1.449  2.2603  1.3296 -0.4544
  434SOL    HW2 1438   1.639   1.824   1.403 -2.0174  2.1924  1.3290
  435SOL     OW 1439   2.382   0.144   1.737 -0.0371 -0.1134  0.3828
  435SOL    HW1 1440   2.351   0.063   1.697  0.8543 -0.6941  0.8305
  435SOL    HW2 1441   2.340   0.146   1.823 -1.0911  0.5831 -0.1224
  436SOL     OW 1442   2.087   3.556   1.643  0.0109  0.3676  0.6227
  436SOL    HW1 1443   2.172   3.554   1.685  0.5846 -2.9039 -0.4260
  436SOL    HW2 1444   2.104   3.592   1.556 -0.2598  2.2830  1.3070
  437SOL     OW 1445   2.958   1.252   3.475  0.6407  0.1393  0.5789
  437SOL    HW1 1446   3.049   1.265   3.502  0.2131  2.8703  0.9758
  437SOL    HW2 1447   2.915   1.336   3.494 -2.0313 -1.1408  0.6517
  438SOL     OW 1448   0.196   1.580   1.526 -0.6528 -0.2741  0.1945
  438SOL    HW1 1449   0.276   1.590   1.474 -0.8622 -0.6639 -0.2063
  438SOL    HW2 1450   0.212   1.634   1.604  0.0917 -0.5202  0.2285
  439SOL     OW 1451   0.732   4.594   2.529 -0.3005  0.0676  0.1576
  439SOL    HW1 1452   0.642   4.604   2.561  0.2852  1.6831  1.4042
  439SOL    HW2 1453   0.722   4.583   2.434 -1.7439  2.2101 -0.0048
  440SOL     OW 1454   0.897   0.534   1.513  0.7062  0.3067 -0.0610
  440SOL    HW1 1455   0.855   0.450   1.492  0.4312  0.3689  0.2157
  440SOL    HW2 1456   0.894   0.584   1.432  1.0453 -0.0241 -0.2784
  441SOL     OW 1457   3.030   1.967   1.570  0.1872 -0.3321  0.6220
  441SOL    HW1 1458   2.987   1.963   1.656  1.0605 -0.5403  1.0553
  441SOL    HW2 1459   3.108   2.020   1.585  2.5876 -3.6287  0.9669
  442SOL     OW 1460   0.395   3.170   1.365  0.4360  0.1675 -0.2306
  442SOL    HW1 1461   0.374   3.081   1.396 -0.7033  0.3971 -0.3236
  442SOL    HW2 1462   0.477   3.191   1.410  0.1498 -0.5086  0.6601
  443SOL     OW 1463   4.670   2.752   3.626  0.0459  0.2065  0.0048
  443SOL    HW1 1464   4.752   2.751   3.577  0.3159  0.4086  0.4356
  443SOL    HW2 1465   4.648   2.660   3.639  2.2230 -0.0698  3.1195
  444SOL     OW 1466   4.604   3.135   4.614  0.1480 -0.0451 -0.3539
  444SOL    HW1 1467   4.684   3.173   4.577 -0.8304  1.3374 -1.1864
  444SOL    HW2 1468   4.547   3.122   4.538 -0.9655  0.4396  0.3686
  445SOL     OW 1469   4.824   1.688   2.583 -0.2353 -0.4526 -0.2580
  445SOL    HW1 1470   4.876   1.769   2.575  1.3867 -1.5314 -1.2620
  445SOL    HW2 1471   4.871   1.625   2.529 -0.0772 -2.7815  2.3781
  446SOL     OW 1472   2.106   3.412   2.297 -1.0945 -0.4204  0.3447
  446SOL    HW1 1473   2.115   3.416   2.202 -3.2967  0.1799  0.1076
  446SOL    HW2 1474   2.069   3.497   2.321  2.3507  0.7441  2.1996
  447SOL     OW 1475   3.034   0.211   2.581 -0.0213  0.2284 -0.0832
  447SOL    HW1 1476   3.128   0.229   2.575 -0.1699  0.5989 -2.2086
  447SOL    HW2 1477   3.022   0.172   2.667  2.2339 -0.7344 -0.1413
  448SOL     OW 1478   4.146   0.979   5.029 -0.0850 -0.1841 -0.9310
  448SOL    HW1 1479   4.101   1.063   5.035 -2.2052 -1.1429 -2.4630
  448SOL    HW2 1480   4.223   0.997   4.975 -1.6129  0.4052 -3.0122
  449SOL     OW 1481   4.116   1.698   4.459 -0.3035  0.5744  0.5258
  449SOL    HW1 1482   4.189   1.759   4.471  0.1619  0.1630 -0.1742
  449SOL    HW2 1483   4.042   1.741   4.502  0.4405  0.8002  1.6151
  450SOL     OW 1484   1.626   3.822   3.968 -0.2999 -0.5548  0.3418
  450SOL    HW1 1485   1.698   3.850   4.024 -2.5356  1.1779  2.5612
  450SOL    HW2 1486   1.651   3.734   3.939  2.2344 -0.3992  1.7670
  451SOL     OW 1487   4.000   0.587   0.945 -0.5647  0.0755 -0.3175
  451SOL    HW1 1488   4.083   0.597   0.991 -0.9874  0.7869  0.3276
  451SOL    HW2 1489   3.982   0.494   0.947  0.6028 -0.1959 -1.1727
  452SOL     OW 1490   2.431   3.525   0.910 -0.2031 -0.1347  0.7788
  452SOL    HW1 1491   2.368   3.482   0.969  0.4711 -0.0007  1.6215
  452SOL    HW2 1492   2.415   3.485   0.825 -0.4301 -1.1782  1.2929
  453SOL     OW 1493   4.863   2.548   3.777 -0.6361 -0.5702  0.1829
  453SOL    HW1 1494   4.927   2.601   3.729 -0.1075 -0.5649  0.8767
  453SOL    HW2 1495   4.820   2.496   3.710  1.7088 -2.2958 -0.1046
  454SOL     OW 1496   0.523   1.777   3.849 -0.5963  0.3124 -0.1349
  454SOL    HW1 1497   0.507   1.774   3.944  0.8127 -0.7928  0.1046
  454SOL    HW2 1498   0.476   1.701   3.815 -0.3691  0.1979 -0.1923
  455SOL     OW 1499   4.064   3.925   1.363 -0.2854  0.0248  0.0245
  455SOL    HW1 1500   4.080   3.839   1.323 -1.3644  0.1118 -0.6396
  455SOL    HW2 1501   4.045   3.906   1.455 -1.5571 -0.5720 -0.3380
  456SOL     OW 1502   4.632   2.123   4.834 -0.0473 -0.0900  0.0623
  456SOL    HW1 1503   4.600   2.075   4.910 -0.8476 -1.9319 -1.3657
  456SOL    HW2 1504   4.726   2.104   4.831 -0.7053 -3.9788 -1.9459
  457SOL     OW 1505   2.422   4.137   4.270  0.4558 -0.3539 -1.6221
  457SOL    HW1 1506   2.437   4.229   4.246  2.1558 -0.7327 -2.2144
  457SOL    HW2 1507   2.457   4.130   4.359  0.3531 -0.4323 -1.5886
  458SOL     OW 1508   3.303   4.435   0.812  0.2530 -0.0062  0.3776
  458SOL    HW1 1509   3.309   4.386   0.894  1.1704 -0.8126 -0.1473
  458SOL    HW2 1510   3.249   4.380   0.754  2.1953 -1.0057 -0.5853
  459SOL     OW 1511   3.643   0.599   2.321 -0.3030 -0.3126 -0.3389
  459SOL    HW1 1512   3.692   0.680   2.305 -2.4965  1.1594  0.0246
  459SOL    HW2 1513   3.708   0.530   2.308  1.8888  1.4998  0.1855
  460SOL     OW 1514   2.919   0.071   3.974  0.3188 -0.4113 -0.6663
  460SOL    HW1 1515   2.995   0.123   3.947  0.0324 -0.4683 -1.6068
  460SOL    HW2 1516   2.846   0.106   3.923  0.2306 -2.1237 -1.7687
  461SOL     OW 1517   3.044   3.443   2.404 -0.7232 -0.1671  0.4158
  461SOL    HW1 1518   3.027   3.489   2.321 -2.7444  1.6855  1.7410
  461SOL    HW2 1519   3.139   3.450   2.416 -0.7307  2.1187 -0.3638
  462SOL     OW 1520   0.549   3.578   0.348 -0.0545 -0.0971 -0.2009
  462SOL    HW1 1521   0.521   3.556   0.259  0.7432 -2.5612  0.0840
  462SOL    HW2 1522   0.482   3.638   0.379 -0.6216  0.4483 -2.2851
  463SOL     OW 1523   0.351   4.728   2.558 -0.5660  0.2377 -0.4515
  463SOL    HW1 1524   0.414   4.785   2.514 -0.3645  0.1621 -0.2609
  463SOL    HW2 1525   0.287   4.788   2.597  0.1070  0.3791  0.4650
  464SOL     OW 1526   2.842   2.128   4.678  0.2244  0.4433  0.3497
  464SOL    HW1 1527   2.835   2.138   4.773  2.0728  1.5339  0.4255
  464SOL    HW2 1528   2.929   2.162   4.657 -0.3720  0.7814 -1.8146
  465SOL     OW 1529   3.768   4.464   2.427 -0.1937 -0.5196  0.0265
  465SOL    HW1 1530   3.836   4.509   2.378  1.4982 -2.3138  0.6144
  465SOL    HW2 1531   3.791   4.372   2.422 -2.4560 -1.1826  0.4916
  466SOL     OW 1532   3.120   3.053   1.207 -0.7543 -0.3824 -0.1590
  466SOL    HW1 1533   3.192   3.029   1.149 -1.2382 -2.2308 -0.0509
  466SOL    HW2 1534   3.040   3.029   1.159 -1.1906 -1.0686  0.8676
  467SOL     OW 1535   1.285   1.136   3.435 -0.0663  0.3021  0.8187
  467SOL    HW1 1536   1.308   1.129   3.342 -0.0062 -1.5401  0.9305
  467SOL    HW2 1537   1.264   1.228   3.448 -1.8802  0.2948 -1.4507
  468SOL     OW 1538   4.869   0.533   4.663  0.0437  0.1728 -0.0253
  468SOL    HW1 1539   4.901   0.466   4.724  1.6451  2.1810  1.4646
  468SOL    HW2 1540   4.774   0.521   4.664  0.2918 -2.8638 -0.8389
  469SOL     OW 1541   2.065   2.876   0.563  0.2814  0.8863  0.1466
  469SOL    HW1 1542   2.039   2.784   0.571 -0.9058  1.2573  0.7106
  469SOL    HW2 1543   2.050   2.914   0.649  2.3823  1.2323  0.3953
  470SOL     OW 1544   0.215   3.885   2.738 -0.1318 -0.3396 -0.1712
  470SOL    HW1 1545   0.275   3.893   2.664 -0.9704 -0.6926 -0.9132
  470SOL    HW2 1546   0.130   3.862   2.698 -1.1101  1.5464  0.7141
  471SOL     OW 1547   4.129   2.687   2.127  0.2152  0.3386  0.4830
  471SOL    HW1 1548   4.126   2.667   2.034 -0.1008  0.9597  0.3580
  471SOL    HW2 1549   4.091   2.775   2.135 -1.4218 -0.3980  1.3913
  472SOL     OW 1550   0.308   2.233   3.693  0.2118 -0.2858 -0.1139
  472SOL    HW1 1551   0.362   2.267   3.765  1.8748 -1.0890 -0.9236
  472SOL    HW2 1552   0.301   2.140   3.711 -1.1936 -0.1556  0.1220
  473SOL     OW 1553   0.367   3.986   3.784 -0.4088 -0.1841  0.0074
  473SOL    HW1 1554   0.407   4.040   3.852 -2.0786  1.6536 -0.3630
  473SOL    HW2 1555   0.362   4.043   3.707 -1.1822 -1.2516 -0.7767
  474SOL     OW 1556   4.001   4.646   1.127  0.0305  0.0655  0.3063
  474SOL    HW1 1557   3.921   4.625   1.079  0.8199 -0.6910 -0.7113
  474SOL    HW2 1558   3.974   4.712   1.191 -0.9448  1.4935 -1.4940
  475SOL     OW 1559   1.732   0.598   2.872 -0.4803  0.2118 -0.0735
  475SOL    HW1 1560   1.694   0.632   2.952  1.2511  0.5608  0.6464
  475SOL    HW2 1561   1.759   0.509   2.894  2.1817  1.0809  0.5608
  476SOL     OW 1562   1.173   2.366   0.137  0.5492 -0.2762  0.0818
  476SOL    HW1 1563   1.163   2.271   0.142  0.9389 -0.3834 -1.0203
  476SOL    HW2 1564   1.090   2.400   0.171  0.7609 -0.9726  1.3869
  477SOL     OW 1565   0.637   1.073   0.781 -0.3857 -0.6744 -0.4803
  477SOL    HW1 1566   0.709   1.015   0.805  0.7333 -0.0324 -2.1375
  477SOL    HW2 1567   0.663   1.159   0.813  0.6907  0.0045 -2.9643
  478SOL     OW 1568   0.208   2.416   0.212  0.6230 -1.1739 -0.2508
  478SOL    HW1 1569   0.174   2.375   0.133  0.2434 -0.9134 -0.2242
  478SOL    HW2 1570   0.205   2.347   0.278  1.1597 -1.4590 -0.5173
  479SOL     OW 1571   0.322   2.727   2.526 -0.2549 -0.5044  0.6307
  479SOL    HW1 1572   0.318   2.799   2.463  1.3131  0.5915  1.7127
  479SOL    HW2 1573   0.278   2.655   2.482 -0.4691  0.6300 -1.1376
  480SOL     OW 1574   4.256   4.118   0.403  0.1231 -0.2818 -0.1258
  480SOL    HW1 1575   4.186   4.131   0.467  1.0619 -0.2130  0.9247
  480SOL    HW2 1576   4.211   4.115   0.319 -0.8984  3.0524  0.1335
  481SOL     OW 1577   4.995   4.872   4.238 -0.9389 -0.0645  0.3533
  481SOL    HW1 1578   5.057   4.849   4.307 -0.8247 -0.6500  0.0609
  481SOL    HW2 1579   4.912   4.835   4.267 -0.4655 -2.1975 -0.7927
  482SOL     OW 1580   2.253   3.794   3.260 -0.4075  0.1132 -0.7632
  482SOL    HW1 1581   2.301   3.749   3.329  0.2078  1.4931 -0.2694
  482SOL    HW2 1582   2.172   3.744   3.252 -0.0436 -0.6820  0.2283
  483SOL     OW 1583   2.018   0.049   3.069  0.4814 -0.4345 -0.4009
  483SOL    HW1 1584   2.057   0.135   3.057  0.0423 -0.2025 -0.1642
  483SOL    HW2 1585   1.952   0.061   3.136  1.2752 -1.2243  0.5610
  484SOL     OW 1586   1.082   2.678   2.412 -0.2253 -0.2159  0.2777
  484SOL    HW1 1587   1.163   2.684   2.462  1.5216 -2.8094 -1.9620
  484SOL    HW2 1588   1.040   2.598   2.445 -0.5799 -0.2778 -0.3160
  485SOL     OW 1589   4.766   0.608   1.334  0.3574 -0.0593  0.3606
  485SOL    HW1 1590   4.807   0.604   1.247  0.5827 -1.0152  0.4921
  485SOL    HW2 1591   4.824   0.664   1.385 -0.0605  0.9438 -0.2412
  486SOL     OW 1592   4.155   0.582   0.737 -0.5182 -0.0934 -0.8291
  486SOL    HW1 1593   4.141   0.669   0.698 -0.3317  1.3560  2.0437
  486SOL    HW2 1594   4.095   0.579   0.811  1.4381 -1.2386  0.8126
  487SOL     OW 1595   1.847   5.037   4.909  0.1525 -0.4180 -0.7873
  487SOL    HW1 1596   1.769   4.982   4.904  0.4890 -0.8608 -1.2583
  487SOL    HW2 1597   1.909   4.986   4.961  0.2295 -0.1908 -0.6568
  488SOL     OW 1598   2.061   2.628   3.560  0.1607  0.1876  0.2368
  488SOL    HW1 1599   2.046   2.536   3.582  0.0826  0.4842  1.4878
  488SOL    HW2 1600   2.015   2.640   3.477 -0.1293 -0.8156  0.2339
  489SOL     OW 1601   4.426   3.311   4.208  0.3362  0.0219 -0.5657
  489SOL    HW1 1602   4.455   3.221   4.223  0.8337 -0.0422 -1.7820
  489SOL    HW2 1603   4.434   3.354   4.294  1.6381 -0.6660 -0.3215
  490SOL     OW 1604   3.811   4.224   2.091  0.7793 -0.4900  0.2231
  490SOL    HW1 1605   3.873   4.232   2.164  0.2261 -0.1986  0.6619
  490SOL    HW2 1606   3.823   4.134   2.060  0.7849 -0.7196  0.8766
  491SOL     OW 1607   4.774   3.859   2.762  0.2243 -0.5921 -0.1496
  491SOL    HW1 1608   4.768   3.860   2.857 -0.3854 -0.3509 -0.1856
  491SOL    HW2 1609   4.813   3.943   2.739  0.3275 -0.6308 -0.1159
  492SOL     OW 1610   2.877   1.575   2.930  0.5056  0.3138 -0.2581
  492SOL    HW1 1611   2.958   1.568   2.881  0.2693 -0.5647 -0.5546
  492SOL    HW2 1612   2.867   1.490   2.973 -1.5939 -0.6582 -2.4107
  493SOL     OW 1613   3.844   3.043   0.731 -0.1244 -0.1339 -0.7738
  493SOL    HW1 1614   3.813   3.104   0.799 -0.9699 -1.1771 -0.1871
  493SOL    HW2 1615   3.921   3.001   0.769 -0.1469 -0.1625 -0.7595
  494SOL     OW 1616   2.032   1.991   2.872 -0.7375  0.7637  0.5749
  494SOL    HW1 1617   2.030   1.937   2.792  0.0559 -0.6915  1.4922
  494SOL    HW2 1618   1.982   2.069   2.849 -0.6016  0.3500 -1.3262
  495SOL     OW 1619   4.029   4.212   3.126 -0.8224 -0.0191 -0.2796
  495SOL    HW1 1620   3.962   4.146   3.107 -1.2235  0.8361 -2.0824
  495SOL    HW2 1621   3.984   4.295   3.113 -0.1302  0.6389  1.2554
  496SOL     OW 1622   1.616   1.172   0.558 -0.1245 -0.0051 -0.3204
  496SOL    HW1 1623   1.692   1.127   0.596 -0.6710 -0.7009 -0.0383
  496SOL    HW2 1624   1.612   1.255   0.605  0.8479  0.3265 -0.7899
  497SOL     OW 1625   0.877   1.665   2.372 -0.0739 -0.4463 -0.4623
  497SOL    HW1 1626   0.785   1.642   2.389  0.2540  0.1119  2.7658
  497SOL    HW2 1627   0.877   1.761   2.369  0.2469 -0.4696 -1.9264
  498SOL     OW 1628   2.847   2.050   4.944 -1.0680 -0.1340  0.0639
  498SOL    HW1 1629   2.850   1.956   4.960  0.8688  0.1125  1.5544
  498SOL    HW2 1630   2.777   2.082   5.001 -0.5968 -0.4832  0.8576
  499SOL     OW 1631   0.460   0.769   1.009  0.5105  0.1940 -0.0939
  499SOL    HW1 1632   0.456   0.713   1.086  0.7444 -0.3262 -0.4502
  499SOL    HW2 1633   0.369   0.788   0.988  0.4494  0.4383  0.3760
  500SOL     OW 1634   4.076   0.788   1.366 -0.3551  0.5133  0.5108
  500SOL    HW1 1635   4.090   0.706   1.318 -4.0309  1.0755 -1.8114
  500SOL    HW2 1636   4.101   0.857   1.305 -0.0203  1.2152  1.4091
  501SOL     OW 1637   4.299   4.793   3.985  0.1048 -0.2340 -0.0993
  501SOL    HW1 1638   4.357   4.791   3.909 -0.7743  1.8127 -0.9000
  501SOL    HW2 1639   4.211   4.779   3.949 -0.1550 -0.9284  0.7759
  502SOL     OW 1640   2.400   3.496   2.160 -0.0702  0.3882  0.6085
  502SOL    HW1 1641   2.493   3.476   2.165 -0.0323  0.8174  1.8879
  502SOL    HW2 1642   2.359   3.413   2.135  0.6763  0.2821 -0.3167
  503SOL     OW 1643   0.688   2.810   3.369 -0.4819  0.1306  0.3725
  503SOL    HW1 1644   0.667   2.740   3.306 -0.0597  0.8114 -0.5518
  503SOL    HW2 1645   0.783   2.823   3.359 -0.5832  0.9441  0.4039
  504SOL     OW 1646   2.471   4.168   1.633  0.0773 -0.1656  0.0762
  504SOL    HW1 1647   2.430   4.174   1.547  0.7750  0.4898 -0.2300
  504SOL    HW2 1648   2.556   4.213   1.622 -0.1334  0.5825  1.2859
  505SOL     OW 1649   1.789   0.447   4.979 -0.5357  0.0010  0.0095
  505SOL    HW1 1650   1.832   0.438   5.064  0.7746  2.2147 -0.3525
  505SOL    HW2 1651   1.697   0.426   4.996 -0.4301  1.0456  2.1415
  506SOL     OW 1652   0.126   0.227   2.487 -0.6566  0.0095  0.1115
  506SOL    HW1 1653   0.085   0.151   2.446 -2.1972  0.6766  0.3572
  506SOL    HW2 1654   0.131   0.292   2.417  1.1603 -0.4413 -0.2481
  507SOL     OW 1655   3.375   2.436   0.514  0.0473  0.5216 -0.0137
  507SOL    HW1 1656   3.360   2.518   0.561  1.1004  1.0550 -0.5748
  507SOL    HW2 1657   3.333   2.369   0.569 -2.0078  1.5636 -0.2059
  508SOL     OW 1658   2.661   0.913   3.919  0.1928  0.4447 -0.4872
  508SOL    HW1 1659   2.679   0.863   3.839 -3.8476  0.4935 -1.6656
  508SOL    HW2 1660   2.639   0.847   3.985  0.2324  0.5037 -0.4145
  509SOL     OW 1661   2.148   3.975   3.091 -0.0523 -0.2738 -0.2543
  509SOL    HW1 1662   2.193   3.916   3.151  0.2649 -0.4131 -0.6256
  509SOL    HW2 1663   2.123   4.050   3.145 -1.4828 -1.2284  0.5002
  510SOL     OW 1664   2.602   3.437   0.109 -0.3996 -0.0573  0.2708
  510SOL    HW1 1665   2.582   3.404   0.022  1.0987 -2.9689  0.9062
  510SOL    HW2 1666   2.555   3.520   0.114 -1.9315 -0.5971 -2.6430
  511SOL     OW 1667   3.239   0.387   3.730 -0.0170 -0.1052  0.8251
  511SOL    HW1 1668   3.188   0.454   3.684  0.0440 -0.1564  0.6807
  511SOL    HW2 1669   3.262   0.428   3.814  0.2964  0.1772  0.6058
  512SOL     OW 1670   3.771   4.651   0.614 -0.2988 -0.2940  0.5314
  512SOL    HW1 1671   3.696   4.670   0.558 -1.3270  0.9978  2.2543
  512SOL    HW2 1672   3.813   4.576   0.572 -1.5755 -0.0292 -1.3873
  513SOL     OW 1673   0.086   3.202   0.969 -0.0604 -0.3054  0.5268
  513SOL    HW1 1674   0.060   3.217   0.878  0.6742 -3.3852 -0.3369
  513SOL    HW2 1675   0.039   3.267   1.020 -0.7419  1.3112 -2.0235
  514SOL     OW 1676   0.769   0.662   2.556 -0.2699  0.0915 -0.4341
  514SOL    HW1 1677   0.856   0.698   2.538 -0.5523  1.3906  0.6538
  514SOL    HW2 1678   0.720   0.675   2.475 -0.1846  1.6959 -0.2610
  515SOL     OW 1679   2.322   3.277   0.725  0.0224 -0.4903  0.0281
  515SOL    HW1 1680   2.247   3.337   0.720  0.3606  0.3182  2.8799
  515SOL    HW2 1681   2.290   3.204   0.778  0.8189 -0.8800 -0.0128
  516SOL     OW 1682   0.078   3.842   0.315 -0.1657  0.3626 -0.1302
  516SOL    HW1 1683   0.089   3.772   0.379  0.2118  0.4965 -0.0441
  516SOL    HW2 1684  -0.016   3.846   0.300 -0.2322  0.1392  0.2047
  517SOL     OW 1685   4.770   1.770   2.834  0.0439  0.3662 -0.1049
  517SOL    HW1 1686   4.796   1.717   2.759  0.0662  0.9525 -0.5136
  517SOL    HW2 1687   4.683   1.803   2.812 -0.5961 -0.6596  0.7686
  518SOL     OW 1688   0.348   2.519   3.643  0.4685  0.2387 -0.4857
  518SOL    HW1 1689   0.260   2.540   3.675  0.3507  1.1411 -1.3353
  518SOL    HW2 1690   0.342   2.428   3.615 -0.6990  0.7394 -2.0688
  519SOL     OW 1691   0.298   2.805   4.350 -0.2969  0.0152  0.4449
  519SOL    HW1 1692   0.386   2.833   4.376 -0.5711  0.9583  0.4108
  519SOL    HW2 1693   0.263   2.762   4.428 -0.2469  0.7263  0.8711
  520SOL     OW 1694   2.531   0.336   4.881 -0.0566  0.6189 -0.0887
  520SOL    HW1 1695   2.534   0.402   4.951  1.2164  0.6682 -0.1581
  520SOL    HW2 1696   2.618   0.341   4.841 -0.6043  0.2561 -1.3721
  521SOL     OW 1697   2.466   1.555   2.724 -0.3177 -0.1267 -0.2759
  521SOL    HW1 1698   2.451   1.637   2.771 -0.6517 -0.4316  0.1557
  521SOL    HW2 1699   2.498   1.583   2.638 -0.5315  0.4567 -0.1745
  522SOL     OW 1700   1.172   1.468   4.602  0.5388 -0.0101 -0.3170
  522SOL    HW1 1701   1.181   1.504   4.690 -2.8796  3.4757 -1.1108
  522SOL    HW2 1702   1.202   1.538   4.544 -1.0409 -0.5665 -1.9251
  523SOL     OW 1703   4.847   1.556   0.479  0.3279 -0.2888 -0.3320
  523SOL    HW1 1704   4.862   1.619   0.409  0.5508  1.1782  1.0032
  523SOL    HW2 1705   4.764   1.583   0.518  0.2041 -1.0977 -0.0111
  524SOL     OW 1706   0.775   4.248   1.943  0.1387  0.0428 -0.0542
  524SOL    HW1 1707   0.853   4.197   1.963 -0.7386 -0.4430  2.4471
  524SOL    HW2 1708   0.797   4.337   1.972  0.2700  0.2644 -0.7920
  525SOL     OW 1709   2.110   2.347   1.060  0.3201  0.4765 -0.6354
  525SOL    HW1 1710   2.100   2.252   1.046 -0.1817  0.7154 -2.0278
  525SOL    HW2 1711   2.069   2.362   1.146  1.0699 -0.6656 -0.0543
  526SOL     OW 1712   3.991   4.373   3.509 -0.5281  0.2741 -0.1588
  526SOL    HW1 1713   3.958   4.464   3.509 -3.0674 -0.5585 -0.0113
  526SOL    HW2 1714   4.049   4.369   3.585  1.5785  2.3472 -1.5212
  527SOL     OW 1715   0.124   2.969   4.185  0.0593 -0.5457  0.3354
  527SOL    HW1 1716   0.068   3.020   4.243 -0.1537  1.5804 -1.6108
  527SOL    HW2 1717   0.171   2.909   4.244  0.0683  1.6203  2.7011
  528SOL     OW 1718   0.581   3.695   4.982  0.4495 -0.3689  0.0524
  528SOL    HW1 1719   0.660   3.717   4.933 -0.7122  2.0529 -0.9063
  528SOL    HW2 1720   0.573   3.764   5.048 -0.6107 -0.8086  0.4078
  529SOL     OW 1721   2.067   2.511   3.155  0.2240  0.0696 -0.2189
  529SOL    HW1 1722   2.017   2.563   3.218  0.9169  1.9310 -1.1613
  529SOL    HW2 1723   2.044   2.420   3.176  1.3934  0.4861  3.5569
  530SOL     OW 1724   0.148   0.614   4.800  0.4565  0.2343 -0.0564
  530SOL    HW1 1725   0.084   0.554   4.761  0.5932 -0.4209  0.7081
  530SOL    HW2 1726   0.123   0.700   4.766  0.1399 -0.2190 -1.0174
  531SOL     OW 1727   3.096   3.360   1.676  0.2178  0.5359 -0.1803
  531SOL    HW1 1728   3.052   3.377   1.592  1.8988  2.1658 -0.7904
  531SOL    HW2 1729   3.189   3.356   1.654  0.6090 -0.2149  1.4684
  532SOL     OW 1730   0.342   3.632   2.411  0.5020 -0.0763  0.1222
  532SOL    HW1 1731   0.262   3.628   2.359  0.5354 -0.6817  0.1082
  532SOL    HW2 1732   0.313   3.623   2.502  0.4472  0.9424  0.2201
  533SOL     OW 1733   2.504   1.685   4.137 -0.0745 -0.2536  0.3961
  533SOL    HW1 1734   2.475   1.607   4.090 -0.0660 -1.0890  1.7214
  533SOL    HW2 1735   2.537   1.652   4.221 -0.0372  1.1710  0.9819
  534SOL     OW 1736   2.901   2.701   0.119 -0.4527  0.2553 -0.1849
  534SOL    HW1 1737   2.894   2.758   0.196 -1.8767  1.7558 -1.3333
  534SOL    HW2 1738   2.852   2.748   0.051 -2.0914 -2.5510 -1.1074
  535SOL     OW 1739   2.669   1.823   4.855 -0.7432 -0.3525 -0.3856
  535SOL    HW1 1740   2.609   1.897   4.852 -1.8082 -1.0728  1.4808
  535SOL    HW2 1741   2.687   1.803   4.763 -0.4626  2.1392 -0.9370
  536SOL     OW 1742   2.332   1.141   2.267 -0.2424 -0.4257  0.2667
  536SOL    HW1 1743   2.412   1.152   2.217 -0.5242 -0.1481 -0.1308
  536SOL    HW2 1744   2.344   1.058   2.313 -1.1988 -2.3899 -2.6594
  537SOL     OW 1745   0.075   2.203   5.062 -0.6342 -0.2755 -0.1705
  537SOL    HW1 1746   0.019   2.280   5.051  1.2836  0.9805 -2.3879
  537SOL    HW2 1747   0.098   2.178   4.972  0.3169 -2.2860  0.5709
  538SOL     OW 1748   4.572   3.261   1.648  0.0275  0.2715  0.1024
  538SOL    HW1 1749   4.600   3.348   1.620  1.7635 -0.5841 -0.9693
  538SOL    HW2 1750   4.630   3.240   1.721  0.0438 -0.2525 -0.0591
  539SOL     OW 1751   0.450   4.352   4.860  0.0894 -0.3277 -0.2848
  539SOL    HW1 1752   0.467   4.438   4.899  0.6904 -0.1353 -0.9541
  539SOL    HW2 1753   0.464   4.290   4.932 -1.6000  0.1939  0.5572
  540SOL     OW 1754   0.974   2.077   3.383  0.0209 -0.6245  0.2947
  540SOL    HW1 1755   1.069   2.065   3.379 -0.0122 -1.0285  0.7079
  540SOL    HW2 1756   0.962   2.151   3.442 -0.0027 -1.8231  1.8358
  541SOL     OW 1757   4.029   0.922   4.695  0.4124 -0.2477  0.0549
  541SOL    HW1 1758   4.047   1.016   4.692  0.1201 -0.1791  0.3818
  541SOL    HW2 1759   4.115   0.881   4.695  0.5413  0.0235 -0.0017
  542SOL     OW 1760   3.129   1.509   2.571 -0.3660 -0.2688 -0.0541
  542SOL    HW1 1761   3.114   1.415   2.560  1.0803 -0.3592 -1.6498
  542SOL    HW2 1762   3.210   1.526   2.524 -0.5552  1.7799  0.2768
  543SOL     OW 1763   4.315   2.300   1.889  0.2454  0.8042  0.0396
  543SOL    HW1 1764   4.313   2.359   1.964  2.5046  0.5167  0.3904
  543SOL    HW2 1765   4.265   2.346   1.821 -2.8146  0.5698  1.9675
  544SOL     OW 1766   3.948   1.825   3.920  0.1333  0.4521  0.0963
  544SOL    HW1 1767   3.969   1.856   4.008  0.9531  2.5567 -0.7594
  544SOL    HW2 1768   3.909   1.901   3.877 -1.1750 -0.8392 -1.0679
  545SOL     OW 1769   1.677   0.499   0.784 -0.0775 -0.2628 -0.1543
  545SOL    HW1 1770   1.772   0.503   0.785 -0.0940  0.1370  1.0370
  545SOL    HW2 1771   1.652   0.487   0.875 -1.2588  2.8634  0.0808
  546SOL     OW 1772   4.595   1.514   4.385 -0.0874 -0.2356 -0.3573
  546SOL    HW1 1773   4.563   1.503   4.295 -1.3320 -0.0359  0.0438
  546SOL    HW2 1774   4.543   1.451   4.436 -1.7071  1.8612  0.7231
  547SOL     OW 1775   0.970   3.893   2.433 -0.7201  0.9398  0.3915
  547SOL    HW1 1776   0.896   3.946   2.402 -0.4243  0.7346 -0.7020
  547SOL    HW2 1777   1.021   3.874   2.354  0.4113  0.9245  1.0978
  548SOL     OW 1778   2.474   4.475   3.840  0.5883 -0.3575 -0.3265
  548SOL    HW1 1779   2.405   4.527   3.882  0.5689 -1.3915  0.9577
  548SOL    HW2 1780   2.437   4.454   3.754  0.4562  1.4255 -0.7542
  549SOL     OW 1781   0.261   1.294   3.347 -0.6473  0.5189  0.3015
  549SOL    HW1 1782   0.262   1.247   3.431 -0.4362  0.0025  0.0106
  549SOL    HW2 1783   0.195   1.249   3.295 -0.3650  0.4735 -0.0175
  550SOL     OW 1784   3.578   1.853   2.878  0.2873 -0.9133  0.2031
  550SOL    HW1 1785   3.616   1.875   2.793 -0.6731  2.0611  0.4345
  550SOL    HW2 1786   3.639   1.890   2.942 -1.1918  0.9242  0.6422
  551SOL     OW 1787   4.703   0.703   2.906  0.3137 -0.1380 -1.0058
  551SOL    HW1 1788   4.757   0.631   2.873  0.3550  0.4998 -2.4141
  551SOL    HW2 1789   4.753   0.739   2.980  0.6484 -1.0762 -0.7651
  552SOL     OW 1790   3.156   2.399   4.437 -0.6206 -0.3498  0.6239
  552SOL    HW1 1791   3.246   2.372   4.416 -1.1476 -1.7419  0.0325
  552SOL    HW2 1792   3.133   2.460   4.367  0.4421  1.4426  1.7509
  553SOL     OW 1793   0.850   0.744   1.791  0.3218  0.2433  0.0493
  553SOL    HW1 1794   0.846   0.697   1.874  1.2909  1.3210  0.7354
  553SOL    HW2 1795   0.854   0.836   1.816 -2.2489  0.8014 -1.2753
  554SOL     OW 1796   1.405   1.949   3.192 -0.8657  0.3085  0.2561
  554SOL    HW1 1797   1.415   1.917   3.281 -0.0275  0.7229  0.3193
  554SOL    HW2 1798   1.333   2.012   3.197 -1.8392 -0.7846  0.3267
  555SOL     OW 1799   1.769   3.073   0.037 -0.3311 -0.1805 -0.1217
  555SOL    HW1 1800   1.719   3.154   0.024  0.6092  0.4660  0.1658
  555SOL    HW2 1801   1.747   3.019  -0.039 -0.7525  0.4603 -0.4708
  556SOL     OW 1802   3.648   2.298   4.949 -0.2296  0.0577 -0.0114
  556SOL    HW1 1803   3.704   2.339   5.014 -2.3776 -0.1110  2.0697
  556SOL    HW2 1804   3.703   2.230   4.909  1.1313  0.0696  1.7462
  557SOL     OW 1805   2.833   3.943   4.830 -0.4943  0.5438 -0.5536
  557SOL    HW1 1806   2.897   3.976   4.767  0.4857  1.3919  0.8470
  557SOL    HW2 1807   2.878   3.871   4.875 -0.2838  1.5350  0.8514
  558SOL     OW 1808   2.766   4.882   2.906  0.6205 -0.0006 -0.3880
  558SOL    HW1 1809   2.715   4.805   2.930  0.0613  1.0682  2.2067
  558SOL    HW2 1810   2.805   4.911   2.989  0.9482  2.4027 -1.3187
  559SOL     OW 1811   0.610   3.468   3.647 -0.2477 -0.6011 -0.4826
  559SOL    HW1 1812   0.529   3.443   3.692  0.6563 -0.4401  1.3038
  559SOL    HW2 1813   0.678   3.413   3.686  0.7690  0.3928 -0.7737
  560SOL     OW 1814   0.365   1.032   4.680 -0.1703 -0.1702  0.1174
  560SOL    HW1 1815   0.434   1.066   4.623 -0.7105  0.9927  0.1240
  560SOL    HW2 1816   0.364   1.093   4.754 -0.1125 -1.1172  0.9188
  561SOL     OW 1817   3.263   2.104   0.329 -0.8390 -0.5610  0.1694
  561SOL    HW1 1818   3.296   2.020   0.297  0.7783 -0.1692  0.6711
  561SOL    HW2 1819   3.261   2.160   0.251 -2.3485 -1.1601 -0.2484
  562SOL     OW 1820   3.009   0.950   2.687  0.4973 -0.0631  0.3187
  562SOL    HW1 1821   3.059   0.892   2.629 -0.0980 -0.6776  0.4107
  562SOL    HW2 1822   3.023   0.914   2.775  1.2782  0.7806  0.5495
  563SOL     OW 1823   3.883   2.710   4.066  0.1633 -0.0921 -0.6743
  563SOL    HW1 1824   3.815   2.753   4.117  0.4394  1.3760 -1.4875
  563SOL    HW2 1825   3.860   2.617   4.069 -0.3413  0.0576  1.2976
  564SOL     OW 1826   0.200   4.116   1.001  0.1434 -0.6352 -0.5525
  564SOL    HW1 1827   0.166   4.039   0.956 -0.6513 -0.8182  0.3345
  564SOL    HW2 1828   0.285   4.133   0.959  0.3714 -2.0351 -0.6957
  565SOL     OW 1829   0.074   1.164   2.006 -0.9185  0.4849  0.0240
  565SOL    HW1 1830   0.042   1.170   1.916  0.4756  0.8148 -0.4719
  565SOL    HW2 1831   0.067   1.071   2.028  0.7241  0.0118 -1.2226
  566SOL     OW 1832   3.718   0.093   1.212 -0.3879 -0.6278  0.6556
  566SOL    HW1 1833   3.707   0.154   1.139 -0.3501  0.7638  1.7708
  566SOL    HW2 1834   3.795   0.125   1.259 -1.9222  0.1479  2.8150
  567SOL     OW 1835   0.518   1.880   4.866 -0.2931  0.0193 -0.2831
  567SOL    HW1 1836   0.568   1.863   4.945 -0.1637 -2.5723 -0.8205
  567SOL    HW2 1837   0.466   1.958   4.886  2.0647  1.3296  1.1494
  568SOL     OW 1838   0.108   2.164   0.287  0.8935 -0.4649 -0.4561
  568SOL    HW1 1839   0.126   2.094   0.350 -1.2401 -2.2912 -1.7053
  568SOL    HW2 1840   0.169   2.148   0.214  0.6836 -0.7802 -0.5627
  569SOL     OW 1841   0.191   4.055   4.352 -0.1682 -0.3391 -0.0517
  569SOL    HW1 1842   0.194   4.041   4.257 -0.9469 -1.1479  0.0337
  569SOL    HW2 1843   0.181   3.967   4.389  0.3716 -0.0571  0.7995
  570SOL     OW 1844   2.640   4.897   1.504 -1.1026  0.1105  0.0331
  570SOL    HW1 1845   2.614   4.935   1.420  0.2955 -0.2048 -0.5645
  570SOL    HW2 1846   2.715   4.841   1.483 -0.8139 -0.0833  1.4767
  571SOL     OW 1847   1.143   4.188   2.673  0.0356 -0.1290 -0.6506
  571SOL    HW1 1848   1.228   4.149   2.657 -0.8601 -2.7090  0.3124
  571SOL    HW2 1849   1.160   4.282   2.682  2.9733 -0.7064  0.8749
  572SOL     OW 1850   0.549   0.033   4.987  0.0242  0.7305  0.5044
  572SOL    HW1 1851   0.538  -0.016   5.069 -0.0578 -0.0846  0.0147
  572SOL    HW2 1852   0.469   0.085   4.980  0.0990  0.9192  1.0203
  573SOL     OW 1853   3.795   3.911   1.539  0.1610 -0.1585 -0.1410
  573SOL    HW1 1854   3.745   3.930   1.618  0.6476  0.1966  0.0862
  573SOL    HW2 1855   3.874   3.866   1.571  0.2960 -0.1353 -0.4363
  574SOL     OW 1856   3.287   0.822   4.229  0.4207  0.2906 -0.5088
  574SOL    HW1 1857   3.265   0.860   4.314 -1.1753  0.1842 -0.8514
  574SOL    HW2 1858   3.371   0.779   4.243  0.8813  1.4952  0.6359
  575SOL     OW 1859   2.130   0.502   4.676  0.2992 -0.3988 -0.4697
  575SOL    HW1 1860   2.198   0.545   4.729 -1.1282 -0.7481  1.7578
  575SOL    HW2 1861   2.048   0.531   4.715 -0.9503  0.6906 -3.6326
  576SOL     OW 1862   0.768   2.889   4.977  0.2169 -0.1625 -0.0104
  576SOL    HW1 1863   0.735   2.859   4.892 -0.0439 -0.6122  0.2430
  576SOL    HW2 1864   0.710   2.846   5.041 -1.2244  2.1047  0.3383
  577SOL     OW 1865   3.881   2.068   1.827 -0.0776 -0.6050 -0.3578
  577SOL    HW1 1866   3.901   2.005   1.757 -0.6927  0.8420 -1.8842
  577SOL    HW2 1867   3.787   2.084   1.819  0.3722  1.9841 -1.3258
  578SOL     OW 1868   1.564   3.724   3.544  0.6420  0.3666 -0.1347
  578SOL    HW1 1869   1.519   3.678   3.615 -0.7122  1.5467 -0.1815
  578SOL    HW2 1870   1.556   3.666   3.469 -1.3594  0.7611 -0.2869
  579SOL     OW 1871   1.317   2.432   1.479  0.6797  0.5529  0.0123
  579SOL    HW1 1872   1.279   2.358   1.432  1.1856 -0.4954  1.1830
  579SOL    HW2 1873   1.243   2.476   1.520  0.2988  1.1519 -1.2829
  580SOL     OW 1874   0.028   2.730   3.987  0.3479 -0.1795  0.1025
  580SOL    HW1 1875   0.101   2.710   4.044 -0.0070 -0.3791  0.4899
  580SOL    HW2 1876  -0.004   2.816   4.017  0.5112 -0.0233 -0.1614
  581SOL     OW 1877   2.945   0.430   0.570  0.0828  0.6437  0.6360
  581SOL    HW1 1878   3.017   0.383   0.613  0.2143  1.2769  1.1289
  581SOL    HW2 1879   2.977   0.520   0.561 -0.6074  0.9086  0.7652
  582SOL     OW 1880   4.392   1.225   2.349  0.1502  0.3560 -0.1040
  582SOL    HW1 1881   4.313   1.211   2.298  0.2512 -0.9157  0.0573
  582SOL    HW2 1882   4.391   1.318   2.369 -1.0190  0.4614 -0.5599
  583SOL     OW 1883   2.451   3.607   1.491 -0.1407  0.4016  0.3241
  583SOL    HW1 1884   2.446   3.693   1.532  1.0669  1.1392 -1.0218
  583SOL    HW2 1885   2.499   3.621   1.410 -0.6423 -1.4008 -0.3355
  584SOL     OW 1886   2.295   1.329   1.849 -0.1020  0.1486 -0.3198
  584SOL    HW1 1887   2.224   1.369   1.799 -2.6032 -1.0792  2.0228
  584SOL    HW2 1888   2.264   1.329   1.939  2.4524 -1.4534  0.6752
  585SOL     OW 1889   2.389   1.661   1.600 -0.1530  0.2230 -0.0846
  585SOL    HW1 1890   2.468   1.613   1.578 -0.2688 -0.0871  0.1760
  585SOL    HW2 1891   2.407   1.699   1.686 -0.8301 -1.0730  0.6622
  586SOL     OW 1892   1.418   2.695   1.600 -0.0330  0.1391  0.1672
  586SOL    HW1 1893   1.383   2.673   1.513  0.0877 -0.8591  0.3614
  586SOL    HW2 1894   1.503   2.652   1.603 -0.1489 -0.0485  0.8730
  587SOL     OW 1895   4.544   4.678   4.508 -0.5774  0.3798  0.1586
  587SOL    HW1 1896   4.590   4.726   4.577 -1.0242 -0.9096  1.4017
  587SOL    HW2 1897   4.457   4.663   4.543 -0.6422 -0.7850 -0.4450
  588SOL     OW 1898   3.980   3.748   2.345 -0.2588 -0.5048  0.0713
  588SOL    HW1 1899   3.910   3.698   2.304 -0.6696 -2.8470  3.2222
  588SOL    HW2 1900   4.056   3.689   2.344  1.1682  1.2237 -1.4774
  589SOL     OW 1901   2.528   3.145   1.142  0.6598 -0.0431  0.4774
  589SOL    HW1 1902   2.527   3.165   1.236 -2.6092  0.9815  0.3485
  589SOL    HW2 1903   2.599   3.199   1.107  1.2777  0.3461  2.1943
  590SOL     OW 1904   3.402   0.459   2.065  0.1563 -0.2562 -0.4466
  590SOL    HW1 1905   3.314   0.431   2.039 -0.6251  2.0335 -0.5372
  590SOL    HW2 1906   3.460   0.416   2.003 -1.0408 -0.6000 -1.3759
  591SOL     OW 1907   4.406   4.335   1.891  0.0237 -0.7734  0.0045
  591SOL    HW1 1908   4.436   4.345   1.982  1.3441 -1.4723 -0.3369
  591SOL    HW2 1909   4.367   4.248   1.889 -1.2007 -0.2504  0.2016
  592SOL     OW 1910   3.612   0.509   1.517 -0.1437  0.1819 -0.5488
  592SOL    HW1 1911   3.588   0.446   1.450 -0.8943 -1.6307  1.3181
  592SOL    HW2 1912   3.536   0.568   1.523 -0.8027 -0.6792 -0.1730
  593SOL     OW 1913   2.624   3.711   0.452  0.4252  0.1254  0.0879
  593SOL    HW1 1914   2.639   3.712   0.547 -1.0089  0.3825  0.3323
  593SOL    HW2 1915   2.656   3.626   0.424  1.3062  0.2313  0.7133
  594SOL     OW 1916   2.268   4.551   2.891 -0.2510 -1.0690 -0.3404
  594SOL    HW1 1917   2.232   4.636   2.865  0.0437 -1.0360 -0.6425
  594SOL    HW2 1918   2.329   4.528   2.821  1.3583 -0.4971  0.8044
  595SOL     OW 1919   3.532   0.733   1.947 -0.0369  0.1497 -0.3348
  595SOL    HW1 1920   3.443   0.711   1.921 -0.4947  0.5851  0.8044
  595SOL    HW2 1921   3.561   0.659   2.001  0.4267 -0.1518 -0.9844
  596SOL     OW 1922   1.992   3.904   2.517  0.9129 -0.0383  0.5571
  596SOL    HW1 1923   2.073   3.941   2.482 -0.1942  1.7678 -0.2410
  596SOL    HW2 1924   1.947   3.979   2.557 -0.7814 -0.7911  0.1385
  597SOL     OW 1925   3.561   4.323   1.692 -0.4421 -0.6558 -0.4467
  597SOL    HW1 1926   3.593   4.233   1.692  0.1431 -0.4594 -1.0495
  597SOL    HW2 1927   3.571   4.351   1.601 -3.0837 -0.8288 -0.8682
  598SOL     OW 1928   0.267   1.478   4.088  0.1156 -0.0332  0.0700
  598SOL    HW1 1929   0.180   1.438   4.090 -1.4151  2.8835 -1.0677
  598SOL    HW2 1930   0.326   1.411   4.121 -2.6336 -1.9879  1.3567
  599SOL     OW 1931   3.714   1.604   1.181 -0.2803 -0.0197 -0.4489
  599SOL    HW1 1932   3.715   1.539   1.111  2.2829 -1.0246  0.3898
  599SOL    HW2 1933   3.655   1.568   1.247 -0.9305 -0.1871 -1.1164
  600SOL     OW 1934   3.094   2.490   0.066 -0.0097 -0.1158 -0.5629
  600SOL    HW1 1935   3.019   2.548   0.077 -0.3773 -0.3539 -1.6299
  600SOL    HW2 1936   3.113   2.493  -0.028 -0.4169 -2.1614 -0.7660
  601SOL     OW 1937   1.906   1.095   2.382 -0.2022 -0.0534  0.3190
  601SOL    HW1 1938   1.979   1.156   2.380  0.8194 -1.2404 -1.7362
  601SOL    HW2 1939   1.830   1.148   2.406  0.9226  1.6494  0.2653
  602SOL     OW 1940   4.884   3.428   3.492  0.4676  0.1223  0.0551
  602SOL    HW1 1941   4.924   3.515   3.496  1.5325 -0.3860  1.2949
  602SOL    HW2 1942   4.951   3.373   3.450 -0.8505  0.1871 -2.3276
  603SOL     OW 1943   4.816   1.942   1.183 -0.0550  0.6069 -0.1812
  603SOL    HW1 1944   4.814   2.018   1.124  1.3683 -0.1394 -1.2436
  603SOL    HW2 1945   4.736   1.894   1.163 -1.0692  1.8896  0.6310
  604SOL     OW 1946   1.534   0.467   1.324 -0.1751 -0.4749 -0.0686
  604SOL    HW1 1947   1.462   0.522   1.294 -0.0365 -0.5820 -0.6026
  604SOL    HW2 1948   1.597   0.528   1.362 -0.0973 -0.2800 -0.5086
  605SOL     OW 1949   3.908   3.745   3.747 -0.3647  0.5289 -0.2286
  605SOL    HW1 1950   3.896   3.667   3.692 -0.9491  0.3996  0.0726
  605SOL    HW2 1951   3.891   3.818   3.688 -0.2036  0.4172 -0.4170
  606SOL     OW 1952   3.707   4.164   1.464  0.2912 -0.4675  0.0910
  606SOL    HW1 1953   3.772   4.226   1.430 -0.7139  1.8212  1.9921
  606SOL    HW2 1954   3.757   4.108   1.524  0.7408  0.6296  0.7842
  607SOL     OW 1955   4.978   2.793   0.481 -0.2050  0.0355  0.2118
  607SOL    HW1 1956   4.969   2.722   0.417  1.7333  1.0665 -1.2963
  607SOL    HW2 1957   4.916   2.860   0.452  0.2624  0.2687 -0.2425
  608SOL     OW 1958   5.006   3.938   3.197  0.4220  0.1887  0.1916
  608SOL    HW1 1959   5.096   3.917   3.220  1.3564  0.1304 -3.0454
  608SOL    HW2 1960   5.012   4.024   3.154 -1.0622  0.1509 -0.1471
  609SOL     OW 1961   4.101   2.119   4.738 -0.0834 -0.4623  0.3193
  609SOL    HW1 1962   4.188   2.095   4.706 -0.8389 -1.7065 -0.8866
  609SOL    HW2 1963   4.080   2.201   4.693  0.2333 -0.4471  0.1983
  610SOL     OW 1964   1.965   0.943   3.956  0.7435 -0.0267 -0.4611
  610SOL    HW1 1965   1.899   1.002   3.920 -1.3266 -1.4214  0.8418
  610SOL    HW2 1966   1.992   0.986   4.038 -0.3295 -0.5784  0.1945
  611SOL     OW 1967   0.227   4.579   4.858  0.0929  0.3315 -0.2865
  611SOL    HW1 1968   0.186   4.511   4.912 -0.4639  0.2655 -0.7862
  611SOL    HW2 1969   0.245   4.536   4.774 -0.0599  0.7430 -0.5302
  612SOL     OW 1970   3.859   2.933   3.183  0.1525 -0.4525 -0.6978
  612SOL    HW1 1971   3.954   2.941   3.190  0.0402 -0.3206  1.2325
  612SOL    HW2 1972   3.826   3.017   3.213 -0.5681 -0.2744 -1.9693
  613SOL     OW 1973   0.063   4.081   3.468 -0.5442  1.0106 -0.6654
  613SOL    HW1 1974   0.069   4.176   3.461 -1.8819  1.5321  2.9880
  613SOL    HW2 1975  -0.018   4.059   3.422 -1.2849  1.9654  0.1222
  614SOL     OW 1976   4.805   2.954   3.827 -0.1167 -0.9366  0.0807
  614SOL    HW1 1977   4.807   3.034   3.773 -0.4788 -0.3848  0.8705
  614SOL    HW2 1978   4.777   2.885   3.766  1.3936 -0.7218 -0.9176
  615SOL     OW 1979   4.519   4.945   3.545 -0.5539  0.3024 -0.2246
  615SOL    HW1 1980   4.484   4.984   3.625  0.4031  1.1865 -0.2222
  615SOL    HW2 1981   4.608   4.979   3.538 -0.4992 -0.0459 -1.4735
  616SOL     OW 1982   1.068   4.667   1.452  0.1400 -0.0499  0.6886
  616SOL    HW1 1983   0.981   4.662   1.411 -0.3404 -0.5566  1.7081
  616SOL    HW2 1984   1.073   4.588   1.505  1.5946 -0.4502 -0.0185
  617SOL     OW 1985   0.532   0.428   0.956 -0.0332  0.5484  0.0245
  617SOL    HW1 1986   0.551   0.520   0.936 -3.1584  1.0568 -1.1869
  617SOL    HW2 1987   0.490   0.395   0.877 -0.3150 -1.5013  0.9689
  618SOL     OW 1988   3.121   1.904   2.933 -0.3496 -0.0167 -0.0111
  618SOL    HW1 1989   3.188   1.848   2.895  0.3729  0.3981  0.6317
  618SOL    HW2 1990   3.169   1.966   2.988 -1.2736  0.0335  0.7799
  619SOL     OW 1991   2.408   3.813   4.523  0.2704 -0.6722  0.2293
  619SOL    HW1 1992   2.379   3.733   4.568  0.8818 -0.8894  0.2600
  619SOL    HW2 1993   2.502   3.818   4.544 -0.4006  2.0870  3.3600
  620SOL     OW 1994   1.384   1.357   5.033  0.2223 -0.2298  0.4223
  620SOL    HW1 1995   1.377   1.269   4.996 -0.3963  0.8312 -2.2625
  620SOL    HW2 1996   1.476   1.380   5.024  0.0998 -0.0282 -0.4582
  621SOL     OW 1997   4.361   1.376   1.708  0.2268  0.4537  0.3578
  621SOL    HW1 1998   4.310   1.320   1.766 -0.1766 -0.6631 -1.0333
  621SOL    HW2 1999   4.301   1.399   1.637  1.2565  0.2416 -0.6029
  622SOL     OW 2000   2.566   2.268   2.507 -0.2549 -0.4559 -0.3015
  622SOL    HW1 2001   2.644   2.216   2.526  0.3247  0.1416 -0.9260
  622SOL    HW2 2002   2.540   2.305   2.591  1.0663  0.5588 -0.2976
  623SOL     OW 2003   4.535   4.816   0.081  0.0316  0.5932  0.1061
  623SOL    HW1 2004   4.600   4.876   0.117  0.8572 -0.8002  1.0254
  623SOL    HW2 2005   4.570   4.729   0.097 -1.3836 -0.1794 -0.7053
  624SOL     OW 2006   2.268   4.705   4.520 -0.2313  0.2535  0.3130
  624SOL    HW1 2007   2.349   4.669   4.484  0.1858  0.6876  0.8037
  624SOL    HW2 2008   2.200   4.676   4.460  0.0131 -1.7752  0.9397
  625SOL     OW 2009   0.204   4.611   2.904  0.1203  0.8859  0.4618
  625SOL    HW1 2010   0.251   4.674   2.959  1.0752  2.1766 -1.6936
  625SOL    HW2 2011   0.166   4.664   2.834 -0.8824 -0.7012 -0.2614
  626SOL     OW 2012   2.476   3.036   0.558  0.4478 -0.2299  0.0905
  626SOL    HW1 2013   2.431   3.109   0.600 -1.4778 -1.8340  1.0580
  626SOL    HW2 2014   2.407   2.990   0.510  2.0069 -0.2485 -2.2946
  627SOL     OW 2015   2.198   3.694   4.381  0.4144 -0.3585  0.4083
  627SOL    HW1 2016   2.290   3.711   4.402  0.6446 -1.2149  0.1266
  627SOL    HW2 2017   2.158   3.675   4.466  0.8906 -1.7202  0.3525
  628SOL     OW 2018   0.912   0.157   2.148 -1.2064  0.3429 -0.0986
  628SOL    HW1 2019   0.849   0.090   2.173 -0.4211 -0.1875  0.5293
  628SOL    HW2 2020   0.922   0.147   2.053  0.2785 -1.7390  0.1818
  629SOL     OW 2021   4.753   1.050   1.063 -0.3556 -0.3020  0.2322
  629SOL    HW1 2022   4.666   1.036   1.026 -0.5695 -0.3387  0.7466
  629SOL    HW2 2023   4.745   1.025   1.155  0.4257 -1.1963  0.0835
  630SOL     OW 2024   2.460   4.768   0.622 -0.1790  0.3862  0.1563
  630SOL    HW1 2025   2.507   4.792   0.703 -1.0331 -2.9043  1.7950
  630SOL    HW2 2026   2.370   4.752   0.650 -0.1894 -2.2695 -1.0615
  631SOL     OW 2027   2.523   1.238   3.009  0.0788  0.1745 -0.2026
  631SOL    HW1 2028   2.560   1.150   3.008  1.0724  0.5606  0.5073
  631SOL    HW2 2029   2.499   1.255   2.918  0.0281 -0.7579 -0.3774
  632SOL     OW 2030   1.162   0.601   3.261 -0.1278 -0.4928 -0.3238
  632SOL    HW1 2031   1.213   0.521   3.247  1.0139  0.2818 -0.7146
  632SOL    HW2 2032   1.082   0.587   3.211 -0.4582 -1.8546  0.5355
  633SOL     OW 2033   0.693   0.402   4.624  0.1560  0.0204 -0.5188
  633SOL    HW1 2034   0.693   0.330   4.686  1.3554  0.8381  0.4597
  633SOL    HW2 2035   0.714   0.361   4.540 -1.0607 -1.0251 -0.3545
  634SOL     OW 2036   2.492   4.659   4.418 -0.4565  0.0709  0.2405
  634SOL    HW1 2037   2.577   4.665   4.463 -1.0875  0.3598  1.4350
  634SOL    HW2 2038   2.484   4.742   4.371  0.5865 -0.5717 -1.1438
  635SOL     OW 2039   4.183   3.748   0.527  0.3776 -0.2095  0.8988
  635SOL    HW1 2040   4.124   3.823   0.527  0.1115 -0.4172  1.1663
  635SOL    HW2 2041   4.156   3.695   0.602  2.0045  0.5365  2.0585
  636SOL     OW 2042   1.798   4.710   3.456 -0.2826 -0.2510 -0.5937
  636SOL    HW1 2043   1.727   4.656   3.422 -0.6256 -0.4534  0.4050
  636SOL    HW2 2044   1.762   4.799   3.460 -0.0491 -0.1135 -1.2746
  637SOL     OW 2045   1.781   1.350   2.435  0.5820 -0.0460 -0.3049
  637SOL    HW1 2046   1.813   1.410   2.503 -2.8326  0.4329  1.0475
  637SOL    HW2 2047   1.686   1.351   2.444  0.0611 -1.5382 -3.8341
  638SOL     OW 2048   4.310   1.701   4.736  0.0125 -0.2388  0.0028
  638SOL    HW1 2049   4.403   1.683   4.723  0.0287  0.2787 -0.7056
  638SOL    HW2 2050   4.303   1.796   4.723 -0.3476  0.0083  1.7382
  639SOL     OW 2051   3.906   4.030   3.868  0.0609 -0.7497  0.0434
  639SOL    HW1 2052   3.836   4.053   3.807 -0.6775 -1.5559  0.5529
  639SOL    HW2 2053   3.863   3.973   3.932  0.7687  0.1898  1.3986
  640SOL     OW 2054   0.242   0.783   0.594  0.0088  0.1488  0.0398
  640SOL    HW1 2055   0.154   0.806   0.566 -0.5278 -1.9798 -0.2095
  640SOL    HW2 2056   0.269   0.856   0.650 -0.5792  2.4202 -2.4452
  641SOL     OW 2057   2.234   1.869   2.291  0.0160  0.6409 -0.3108
  641SOL    HW1 2058   2.298   1.910   2.349  0.4601 -0.3081 -0.1013
  641SOL    HW2 2059   2.167   1.936   2.277  0.0666  0.9947  1.0317
  642SOL     OW 2060   1.866   3.318   3.106 -0.2366 -0.4410  0.6061
  642SOL    HW1 2061   1.857   3.254   3.035  0.2865 -0.1786  0.2932
  642SOL    HW2 2062   1.959   3.315   3.130 -0.4879 -0.8227  1.5720
  643SOL     OW 2063   0.982   0.188   0.723 -0.0452 -0.2946 -0.0742
  643SOL    HW1 2064   0.995   0.167   0.816 -1.1006 -1.9697 -0.2712
  643SOL    HW2 2065   1.046   0.256   0.705  0.5407 -0.3055  1.7541
  644SOL     OW 2066   4.917   2.344   4.965 -0.6274  0.9487  0.3805
  644SOL    HW1 2067   4.867   2.372   4.888 -0.4274  0.1750 -0.0454
  644SOL    HW2 2068   4.854   2.345   5.036 -1.3083 -0.1301 -0.1763
  645SOL     OW 2069   0.626   2.223   1.709 -0.3532  0.1696  0.2827
  645SOL    HW1 2070   0.697   2.287   1.710 -1.7024  1.7468  1.4887
  645SOL    HW2 2071   0.643   2.169   1.631  2.1866  0.3837  0.5863
  646SOL     OW 2072   1.139   3.171   2.394  0.4045  0.1516  0.0636
  646SOL    HW1 2073   1.164   3.080   2.380  1.9740  0.6221 -0.4735
  646SOL    HW2 2074   1.111   3.202   2.308 -1.7033 -0.2367  0.5700
  647SOL     OW 2075   3.703   2.757   3.044 -0.3879  0.1592 -0.0449
  647SOL    HW1 2076   3.751   2.814   3.104 -0.5180  1.0545 -0.7715
  647SOL    HW2 2077   3.614   2.756   3.079 -0.0541 -0.8359  0.8302
  648SOL     OW 2078   1.197   1.274   1.596 -0.4603  0.3644 -0.2870
  648SOL    HW1 2079   1.233   1.341   1.654  1.6691  0.3963 -1.5760
  648SOL    HW2 2080   1.179   1.200   1.654 -0.4275  1.1382  0.7392
  649SOL     OW 2081   1.517   2.988   3.819 -0.0549 -0.1706  0.2731
  649SOL    HW1 2082   1.547   2.901   3.791 -1.6733 -0.7295  0.1530
  649SOL    HW2 2083   1.542   3.046   3.748  1.9762 -0.3129  0.8115
  650SOL     OW 2084   5.055   1.735   2.339  0.1478  0.4520  0.6016
  650SOL    HW1 2085   5.025   1.776   2.258 -1.0353 -0.3560  0.5998
  650SOL    HW2 2086   5.039   1.800   2.407  1.6992  1.3645  0.1342
  651SOL     OW 2087   0.239   4.193   2.271 -0.2737 -0.0193  0.6167
  651SOL    HW1 2088   0.233   4.098   2.260 -0.2021 -0.0367  0.7233
  651SOL    HW2 2089   0.324   4.207   2.312  0.0123  0.1419 -0.0134
  652SOL     OW 2090   1.877   1.795   0.739 -0.0394 -0.3835  0.4319
  652SOL    HW1 2091   1.919   1.797   0.653 -1.2350  1.3542 -0.1897
  652SOL    HW2 2092   1.792   1.753   0.723 -0.5985  0.6466  0.5422
  653SOL     OW 2093   2.468   3.648   4.952 -0.0606  0.3132  0.7980
  653SOL    HW1 2094   2.475   3.702   5.031 -0.4402 -0.8165  1.6343
  653SOL    HW2 2095   2.375   3.652   4.929 -0.5877 -1.8526  2.2773
  654SOL     OW 2096   3.522   0.286   1.358 -0.2187  0.1679  0.8683
  654SOL    HW1 2097   3.550   0.213   1.302 -0.9672 -0.8572  1.7809
  654SOL    HW2 2098   3.441   0.317   1.318  0.9750  1.6714 -0.5019
  655SOL     OW 2099   2.366   1.155   4.172  0.2753  0.6966 -0.0405
  655SOL    HW1 2100   2.338   1.162   4.080 -0.3211 -0.3752  0.0490
  655SOL    HW2 2101   2.325   1.075   4.204 -0.3105  1.5373  1.4456
  656SOL     OW 2102   0.857   1.911   0.220 -0.6900  0.0610  0.1497
  656SOL    HW1 2103   0.948   1.885   0.227  0.0121  1.3810 -2.5844
  656SOL    HW2 2104   0.810   1.854   0.280  1.8545 -1.0094  1.2277
  657SOL     OW 2105   4.180   4.080   3.838 -0.1966  0.0297  0.6066
  657SOL    HW1 2106   4.085   4.093   3.848 -0.5076 -0.5771 -1.1812
  657SOL    HW2 2107   4.214   4.165   3.812 -0.6433 -0.2538 -1.0183
  658SOL     OW 2108   2.231   1.999   4.670  0.4406 -0.3473  0.1560
  658SOL    HW1 2109   2.300   2.044   4.718 -0.4770  0.8857  0.3554
  658SOL    HW2 2110   2.239   1.907   4.697  0.2853  0.2156  2.2694
  659SOL     OW 2111   4.195   0.923   0.831  0.4981 -0.2402 -0.1858
  659SOL    HW1 2112   4.196   0.891   0.741  3.2215 -0.4377 -0.1718
  659SOL    HW2 2113   4.211   1.017   0.823  0.0975 -0.1445  0.0852
  660SOL     OW 2114   1.811   0.110   2.690 -0.5619 -0.0214  0.7565
  660SOL    HW1 2115   1.742   0.112   2.624  0.2627  1.0460 -0.1293
  660SOL    HW2 2116   1.847   0.021   2.685 -1.1880 -0.2607  0.4943
  661SOL     OW 2117   0.820   3.885   2.872  0.0167 -0.4665 -0.2907
  661SOL    HW1 2118   0.781   3.889   2.959  1.0720  0.2947  0.1863
  661SOL    HW2 2119   0.783   3.807   2.831 -1.4354 -0.1526  0.3706
  662SOL     OW 2120   3.827   2.056   3.769  0.1487 -0.3139  0.2155
  662SOL    HW1 2121   3.767   2.098   3.707  0.8093  0.9888  0.4182
  662SOL    HW2 2122   3.853   2.126   3.829  0.4746 -1.2721  1.2299
  663SOL     OW 2123   0.591   4.127   3.149 -0.0543  0.7609 -0.0986
  663SOL    HW1 2124   0.620   4.037   3.160  0.8519  0.9538 -0.8333
  663SOL    HW2 2125   0.638   4.176   3.216 -1.1942  0.5687  0.8656
  664SOL     OW 2126   3.634   3.718   2.326 -0.4166 -0.8060 -0.3330
  664SOL    HW1 2127   3.616   3.687   2.414 -0.9210 -0.7714 -0.4219
  664SOL    HW2 2128   3.693   3.652   2.289 -3.2934 -3.0365 -1.3312
  665SOL     OW 2129   3.419   2.655   4.095  0.4626 -0.6203  0.0980
  665SOL    HW1 2130   3.472   2.693   4.024  3.2663  0.4058  2.5476
  665SOL    HW2 2131   3.343   2.618   4.050  1.7217  0.5456 -3.3564
  666SOL     OW 2132   1.329   0.887   3.514 -0.1945 -0.1233  0.2595
  666SOL    HW1 2133   1.395   0.878   3.583 -0.6393 -0.6783  0.6211
  666SOL    HW2 2134   1.319   0.982   3.502  0.3144 -0.0331  0.5410
  667SOL     OW 2135   2.275   4.553   1.096 -0.1248  0.2085  0.6552
  667SOL    HW1 2136   2.363   4.523   1.075 -1.0709 -2.4312 -0.0243
  667SOL    HW2 2137   2.262   4.631   1.043  1.6254  0.3672  0.4061
  668SOL     OW 2138   0.374   2.107   4.929 -0.0865  0.7091 -0.3271
  668SOL    HW1 2139   0.339   2.155   4.854  0.9517  0.5448 -0.9306
  668SOL    HW2 2140   0.439   2.167   4.967  0.2738  0.3083 -0.3038
  669SOL     OW 2141   3.092   1.547   3.324  0.3623  0.2750 -0.2598
  669SOL    HW1 2142   3.010   1.499   3.334  0.2493  0.2077 -1.3367
  669SOL    HW2 2143   3.072   1.615   3.259  1.2235  0.0662 -0.7656
  670SOL     OW 2144   2.644   4.354   4.772  0.0895  0.0039  0.1137
  670SOL    HW1 2145   2.738   4.375   4.769  0.2229 -0.4920  0.6637
  670SOL    HW2 2146   2.602   4.437   4.794  0.0250  1.1509 -3.6129
  671SOL     OW 2147   4.244   0.171   1.467  0.5383 -0.4649  0.3719
  671SOL    HW1 2148   4.338   0.164   1.481  0.8941  0.8258 -1.1109
  671SOL    HW2 2149   4.235   0.220   1.385 -1.4265 -0.5920  0.4548
  672SOL     OW 2150   0.381   3.617   4.765  0.1277  0.8054 -0.7672
  672SOL    HW1 2151   0.320   3.687   4.742  0.3020  1.0482 -0.4858
  672SOL    HW2 2152   0.443   3.657   4.825 -0.5392  0.0879  0.4359
  673SOL     OW 2153   1.593   1.162   0.978  0.2296 -0.0879  0.0966
  673SOL    HW1 2154   1.514   1.129   1.020  0.1559  2.7492  2.5580
  673SOL    HW2 2155   1.624   1.231   1.037  2.5024  1.4147 -2.6066
  674SOL     OW 2156   3.636   1.063   0.908 -0.8332 -0.1765  0.3506
  674SOL    HW1 2157   3.568   1.118   0.947 -0.6051  0.8292 -0.6278
  674SOL    HW2 2158   3.590   1.006   0.847 -0.7641  0.9027 -0.7460
  675SOL     OW 2159   2.936   4.694   1.805  0.3563 -0.0550 -0.3307
  675SOL    HW1 2160   2.877   4.769   1.811 -0.7990 -0.8857 -0.9952
  675SOL    HW2 2161   3.023   4.732   1.811 -0.1491  1.5133 -2.0658
  676SOL     OW 2162   3.292   3.297   5.005  0.3327  0.8787  0.2066
  676SOL    HW1 2163   3.315   3.217   5.053  0.0935  1.3050  1.0629
  676SOL    HW2 2164   3.298   3.273   4.913 -1.5447 -0.6686  0.4254
  677SOL     OW 2165   0.578   2.570   0.432 -0.7711  1.2423  0.4753
  677SOL    HW1 2166   0.606   2.491   0.477 -0.9224  1.1435  0.3960
  677SOL    HW2 2167   0.623   2.641   0.478  0.7507  0.9746 -0.5261
  678SOL     OW 2168   1.590   4.460   2.914 -0.2701 -0.8140 -0.9996
  678SOL    HW1 2169   1.555   4.405   2.983  1.9145 -1.6167 -0.4667
  678SOL    HW2 2170   1.567   4.415   2.833 -1.5302 -0.6358 -0.7740
  679SOL     OW 2171   0.427   1.033   2.997  0.1049  0.3864 -0.1208
  679SOL    HW1 2172   0.434   1.090   3.074  1.1547  0.2353 -0.0897
  679SOL    HW2 2173   0.498   1.062   2.940  0.9961 -1.2151  0.1302
  680SOL     OW 2174   0.134   3.636   0.480  0.0481 -0.2194 -0.3740
  680SOL    HW1 2175   0.154   3.667   0.568 -1.4382 -1.2141  0.3710
  680SOL    HW2 2176   0.123   3.541   0.490 -0.7135 -0.2722 -1.5068
  681SOL     OW 2177   4.461   2.146   0.801 -0.1478  0.3058 -0.0093
  681SOL    HW1 2178   4.530   2.115   0.858 -1.0007 -0.6313  0.5498
  681SOL    HW2 2179   4.409   2.206   0.855 -0.7193 -0.2630  0.0817
  682SOL     OW 2180   3.638   1.775   2.311 -0.2506 -0.9357 -0.4431
  682SOL    HW1 2181   3.663   1.866   2.296 -0.1395 -1.0798 -1.1299
  682SOL    HW2 2182   3.719   1.726   2.300 -0.2469 -1.0931  0.2286
  683SOL     OW 2183   2.606   0.830   0.948  0.3039 -0.1216  0.0472
  683SOL    HW1 2184   2.516   0.847   0.922  0.0104 -1.4765  0.1044
  683SOL    HW2 2185   2.617   0.879   1.030 -0.0539  0.8487 -0.4717
  684SOL     OW 2186   2.407   2.927   4.292 -0.6233  0.9625  0.4651
  684SOL    HW1 2187   2.353   2.991   4.245 -0.0593  0.6614 -0.6351
  684SOL    HW2 2188   2.473   2.980   4.337  0.6824  1.1500 -1.5297
  685SOL     OW 2189   1.151   1.742   2.277  0.2494 -0.3254 -0.6989
  685SOL    HW1 2190   1.198   1.674   2.230 -0.6224 -0.5148 -1.3262
  685SOL    HW2 2191   1.059   1.716   2.271 -0.1756  1.2024 -1.5041
  686SOL     OW 2192   1.004   2.573   3.546  0.0646  0.1111  0.2109
  686SOL    HW1 2193   0.945   2.506   3.582  2.1352 -1.8229  0.1975
  686SOL    HW2 2194   1.045   2.612   3.623  0.5360 -0.2624  0.1544
  687SOL     OW 2195   2.091   2.139   4.466  0.0063  0.6377  0.0717
  687SOL    HW1 2196   1.998   2.123   4.483  0.2681 -0.4987  0.5756
  687SOL    HW2 2197   2.137   2.081   4.527  1.0483  0.3655 -0.9261
  688SOL     OW 2198   1.450   2.509   3.462  0.1803  0.5500 -0.1402
  688SOL    HW1 2199   1.359   2.502   3.435  0.0440  1.6152  0.0043
  688SOL    HW2 2200   1.491   2.430   3.428 -0.7762  0.1037 -0.2802
  689SOL     OW 2201   0.244   2.646   4.122 -0.1698  0.2443 -0.4070
  689SOL    HW1 2202   0.256   2.685   4.208 -0.5138 -0.8459  0.1396
  689SOL    HW2 2203   0.206   2.560   4.138  0.9325 -0.5101 -1.5625
  690SOL     OW 2204   3.704   4.770   2.284  0.3114 -0.3805 -0.4974
  690SOL    HW1 2205   3.786   4.777   2.236  1.3220 -1.1762  1.0138
  690SOL    HW2 2206   3.680   4.678   2.277  0.7271 -0.6196  0.8411
  691SOL     OW 2207   4.610   3.786   3.173  0.0597 -0.1619  0.0885
  691SOL    HW1 2208   4.549   3.722   3.137 -0.8536  0.2723  0.8466
  691SOL    HW2 2209   4.676   3.733   3.218 -1.7272 -0.5924  2.4012
  692SOL     OW 2210   4.123   0.995   2.393  0.3853 -0.4385  0.6766
  692SOL    HW1 2211   4.090   0.915   2.353  0.2999 -0.3548  0.5777
  692SOL    HW2 2212   4.193   1.025   2.334 -0.4419  0.2501  0.0222
  693SOL     OW 2213   1.414   2.357   0.964  0.0441 -0.0222  0.1722
  693SOL    HW1 2214   1.342   2.419   0.970  0.5567  0.7686 -1.4080
  693SOL    HW2 2215   1.446   2.365   0.874 -0.1457 -2.8991 -0.2490
  694SOL     OW 2216   3.108   4.381   1.047 -0.0228 -0.1975  0.2843
  694SOL    HW1 2217   3.094   4.290   1.021 -0.8611 -0.2697  0.9644
  694SOL    HW2 2218   3.183   4.378   1.107  1.0785 -0.1965 -1.0403
  695SOL     OW 2219   0.500   2.840   4.508  0.2977  0.5590  0.2437
  695SOL    HW1 2220   0.586   2.858   4.471 -0.3252 -0.7627 -2.0315
  695SOL    HW2 2221   0.519   2.797   4.592  1.8098  1.7315  0.5459
  696SOL     OW 2222   3.162   4.199   0.134  0.2863 -0.1929  0.1562
  696SOL    HW1 2223   3.066   4.197   0.141 -0.0082  0.7846 -2.3165
  696SOL    HW2 2224   3.192   4.242   0.214 -1.3296 -0.5713  1.0011
  697SOL     OW 2225   2.549   0.502   2.575  0.4536  0.1644  0.5803
  697SOL    HW1 2226   2.478   0.535   2.630 -0.9842 -2.3136  0.3596
  697SOL    HW2 2227   2.550   0.408   2.590  1.5792 -0.2978 -1.8479
  698SOL     OW 2228   3.547   3.371   4.319 -0.3483  0.2983  0.2562
  698SOL    HW1 2229   3.593   3.414   4.392 -1.7119  1.2429  0.5973
  698SOL    HW2 2230   3.612   3.312   4.281  1.1692  1.6328  0.6714
  699SOL     OW 2231   2.115   3.582   1.384 -0.9468 -0.3716 -0.0655
  699SOL    HW1 2232   2.079   3.533   1.309 -3.2060  0.0961  0.6236
  699SOL    HW2 2233   2.102   3.674   1.361  0.5457 -0.1422 -0.0819
  700SOL     OW 2234   0.380   5.002   4.102 -0.5368  0.4699 -0.2646
  700SOL    HW1 2235   0.424   5.058   4.037 -0.5057 -2.1453 -2.6877
  700SOL    HW2 2236   0.452   4.954   4.143 -0.7437  0.1307 -0.2985
  701SOL     OW 2237   4.506   3.526   0.657 -0.3596  0.5618 -0.8231
  701SOL    HW1 2238   4.594   3.529   0.620  0.0218  0.4397  0.0436
  701SOL    HW2 2239   4.510   3.457   0.722  0.1878  3.3098  2.3338
  702SOL     OW 2240   0.606   2.723   2.454  0.3616  0.2636 -0.3681
  702SOL    HW1 2241   0.511   2.723   2.465  0.1612 -1.6182 -1.6791
  702SOL    HW2 2242   0.639   2.675   2.530  0.1819  0.0694 -0.4118
  703SOL     OW 2243   2.455   3.627   4.104  0.5704 -0.5247  0.3342
  703SOL    HW1 2244   2.461   3.715   4.140  0.1701 -0.5909  0.5646
  703SOL    HW2 2245   2.402   3.636   4.025  0.6321 -0.5433  0.2901
  704SOL     OW 2246   2.546   2.713   0.025 -0.3852 -0.2761  0.3257
  704SOL    HW1 2247   2.618   2.771  -0.001  0.5847 -0.7136  1.8947
  704SOL    HW2 2248   2.468   2.755  -0.009  0.6167  0.0202 -1.7906
  705SOL     OW 2249   0.665   3.151   4.569 -0.7442  0.3418  0.4493
  705SOL    HW1 2250   0.589   3.125   4.622 -0.3142  0.9564  1.3979
  705SOL    HW2 2251   0.740   3.118   4.618 -0.3442  0.8865  0.2072
  706SOL     OW 2252   0.084   0.334   2.853 -0.2672 -0.5167  0.0314
  706SOL    HW1 2253   0.129   0.364   2.932  0.5511  0.0412 -0.6208
  706SOL    HW2 2254   0.023   0.267   2.884 -1.7951  1.4357  1.4694
  707SOL     OW 2255   0.531   2.192   4.199 -0.3033  0.3278  0.0404
  707SOL    HW1 2256   0.455   2.160   4.248  1.8390  0.2909  3.6350
  707SOL    HW2 2257   0.593   2.119   4.199  0.8949  1.3103 -0.1923
  708SOL     OW 2258   0.725   2.882   2.668  0.3640 -0.7592  0.3411
  708SOL    HW1 2259   0.683   2.887   2.582  0.4143 -0.7572  0.3164
  708SOL    HW2 2260   0.819   2.876   2.648  0.5985  1.7135  0.4468
  709SOL     OW 2261   2.916   3.238   1.291  0.3446 -0.7103  0.0180
  709SOL    HW1 2262   2.892   3.195   1.373 -1.8063  1.0716  0.3954
  709SOL    HW2 2263   2.959   3.319   1.319  0.9507 -0.7935 -0.6503
  710SOL     OW 2264   1.072   0.667   0.705 -0.6898  0.4936  0.1858
  710SOL    HW1 2265   0.995   0.648   0.760 -1.2343 -1.3448 -1.1363
  710SOL    HW2 2266   1.117   0.584   0.697  1.0358  1.3829  0.2467
  711SOL     OW 2267   0.013   2.576   1.337 -0.0370  0.0875 -0.1501
  711SOL    HW1 2268   0.078   2.623   1.285 -0.3454  1.7088  0.8744
  711SOL    HW2 2269   0.057   2.556   1.419  0.1564 -1.6653 -0.6325
  712SOL     OW 2270   0.878   0.255   3.426  0.1983  0.2192 -0.5028
  712SOL    HW1 2271   0.933   0.302   3.364  0.2751  1.4052  0.4343
  712SOL    HW2 2272   0.921   0.170   3.436  1.4954  0.8777 -0.2978
  713SOL     OW 2273   4.395   1.857   0.770 -0.2212 -0.2627 -0.4979
  713SOL    HW1 2274   4.410   1.804   0.692  0.2136  0.2397 -0.7650
  713SOL    HW2 2275   4.384   1.946   0.736 -0.7336 -0.1483 -0.0428
  714SOL     OW 2276   0.417   1.324   1.831 -0.0074 -0.2693 -0.4098
  714SOL    HW1 2277   0.488   1.376   1.868 -0.7712  1.8599 -1.7509
  714SOL    HW2 2278   0.432   1.327   1.736 -0.0859 -2.5643 -0.5392
  715SOL     OW 2279   3.580   4.504   1.450 -0.1457  0.5075 -0.1287
  715SOL    HW1 2280   3.581   4.471   1.360 -0.5094  0.8702 -0.2706
  715SOL    HW2 2281   3.576   4.600   1.440  0.2265  0.5655  0.2715
  716SOL     OW 2282   2.682   2.179   1.218 -0.5686  0.1607 -0.0456
  716SOL    HW1 2283   2.770   2.142   1.210 -0.1948  1.0195  0.0487
  716SOL    HW2 2284   2.637   2.150   1.138  0.7506  2.2390 -1.6426
  717SOL     OW 2285   4.632   1.450   3.246 -0.3314 -0.4564 -0.4433
  717SOL    HW1 2286   4.586   1.448   3.162 -0.0179 -1.0903 -0.6072
  717SOL    HW2 2287   4.718   1.412   3.227 -0.0155  0.0098  0.0246
  718SOL     OW 2288   3.868   0.534   4.608 -0.5956  0.1239  0.4881
  718SOL    HW1 2289   3.816   0.611   4.587 -2.0182 -0.3457  2.0926
  718SOL    HW2 2290   3.892   0.497   4.523 -0.9737  1.5957 -0.2884
  719SOL     OW 2291   2.951   1.576   4.198  0.2125  0.1872 -0.5426
  719SOL    HW1 2292   2.898   1.510   4.154  1.1166 -0.3950 -0.7682
  719SOL    HW2 2293   2.887   1.630   4.246 -0.5167 -0.9795 -0.1666
  720SOL     OW 2294   3.519   1.022   1.188  0.0726 -1.0312  0.2037
  720SOL    HW1 2295   3.600   1.057   1.227  0.7674 -1.4395 -0.8300
  720SOL    HW2 2296   3.511   0.934   1.224  0.4360 -1.2181 -0.1587
  721SOL     OW 2297   0.428   3.946   4.474 -0.8631 -0.2049 -0.0950
  721SOL    HW1 2298   0.354   3.901   4.516  0.1563  1.7908  4.4464
  721SOL    HW2 2299   0.503   3.890   4.494 -0.7443 -1.7203 -3.8614
  722SOL     OW 2300   1.665   2.095   2.785 -0.0659 -0.1450 -0.4341
  722SOL    HW1 2301   1.632   2.019   2.833 -0.4060 -1.4403 -2.5833
  722SOL    HW2 2302   1.591   2.156   2.784 -0.7683 -0.9758 -1.0300
  723SOL     OW 2303   2.330   0.262   2.189  0.7259  0.1550  0.2666
  723SOL    HW1 2304   2.294   0.348   2.211  0.2570  0.2867 -0.9494
  723SOL    HW2 2305   2.416   0.260   2.232  0.3510  0.8554  1.0746
  724SOL     OW 2306   1.704   4.890   1.505 -0.7708  0.2475  0.3927
  724SOL    HW1 2307   1.737   4.945   1.434  0.3964  0.9453  1.4398
  724SOL    HW2 2308   1.612   4.916   1.515 -0.6138  1.0088 -0.0518
  725SOL     OW 2309   1.236   3.682   0.566 -0.7715  0.2764 -0.4413
  725SOL    HW1 2310   1.232   3.742   0.641 -2.9905 -2.7763  2.1600
  725SOL    HW2 2311   1.162   3.707   0.511 -2.2197 -0.4515  1.0727
  726SOL     OW 2312   1.648   3.444   4.453 -0.1504 -0.3378  0.3785
  726SOL    HW1 2313   1.681   3.496   4.380 -0.1791  1.0863  1.3214
  726SOL    HW2 2314   1.688   3.358   4.442  1.4215  0.4305 -0.2227
  727SOL     OW 2315   4.087   1.657   3.528  0.6658 -0.1988 -0.8739
  727SOL    HW1 2316   4.020   1.680   3.592  1.9955  0.7997  0.2057
  727SOL    HW2 2317   4.053   1.690   3.445 -0.7556 -0.8760 -0.5876
  728SOL     OW 2318   2.664   1.369   2.783 -0.2889  0.4231 -0.6040
  728SOL    HW1 2319   2.600   1.439   2.779 -0.5607  0.3020  0.8618
  728SOL    HW2 2320   2.688   1.364   2.876 -1.8488 -2.7579 -0.2062
  729SOL     OW 2321   0.566   2.166   1.104  0.6468 -0.2243 -0.0489
  729SOL    HW1 2322   0.629   2.099   1.081 -0.1255 -1.2159  0.6447
  729SOL    HW2 2323   0.541   2.146   1.194  1.4997  1.8821  0.7276
  730SOL     OW 2324   4.203   1.472   4.266  0.0063  0.3744  0.0350
  730SOL    HW1 2325   4.185   1.539   4.331 -2.1476  1.5343 -1.6511
  730SOL    HW2 2326   4.146   1.492   4.193  1.9415 -1.1621 -2.0664
  731SOL     OW 2327   2.606   1.351   2.331 -0.2751  0.3978 -0.4454
  731SOL    HW1 2328   2.667   1.398   2.274 -0.2839 -0.1049 -0.8760
  731SOL    HW2 2329   2.644   1.358   2.418  1.3338 -1.3646 -0.9332
  732SOL     OW 2330   2.484   4.973   1.264  0.4420 -0.2242  0.7201
  732SOL    HW1 2331   2.510   4.899   1.208 -0.8353 -1.0108  1.1249
  732SOL    HW2 2332   2.395   4.952   1.291  0.6735  0.6476  2.2394
  733SOL     OW 2333   1.168   2.190   0.913 -0.1625 -0.3633  0.0984
  733SOL    HW1 2334   1.263   2.177   0.912 -0.0555  0.3853  0.1854
  733SOL    HW2 2335   1.145   2.201   0.821 -0.4894 -2.6539 -0.1666
  734SOL     OW 2336   4.972   3.939   1.032 -0.0509 -0.1522 -0.0135
  734SOL    HW1 2337   5.062   3.905   1.037  1.2584  2.7051 -1.7939
  734SOL    HW2 2338   4.933   3.893   0.958  0.2871 -0.6041  0.0821
  735SOL     OW 2339   0.480   1.949   0.838  0.2241 -0.0670  0.7659
  735SOL    HW1 2340   0.571   1.919   0.844 -0.6852 -2.8111  2.5185
  735SOL    HW2 2341   0.476   1.996   0.755  3.4597  1.1078  1.1149
  736SOL     OW 2342   3.589   0.643   0.823  0.0071  0.0386 -0.2336
  736SOL    HW1 2343   3.621   0.684   0.903  0.1389  1.1733 -0.8592
  736SOL    HW2 2344   3.634   0.558   0.820  2.3131  1.2113 -0.6380
  737SOL     OW 2345   1.943   0.607   4.811  0.6222  0.0862 -0.2714
  737SOL    HW1 2346   1.991   0.660   4.874  0.5787  1.1439 -1.1053
  737SOL    HW2 2347   1.875   0.563   4.863  0.4852  1.0566  0.3931
  738SOL     OW 2348   1.389   3.268   2.414  0.3583 -0.2714 -0.8303
  738SOL    HW1 2349   1.431   3.251   2.499  1.4127 -0.3138 -1.3502
  738SOL    HW2 2350   1.299   3.238   2.426 -0.1835  1.8629  1.0168
  739SOL     OW 2351   4.094   2.264   4.998 -0.0785  0.5228 -0.1323
  739SOL    HW1 2352   4.110   2.239   4.907  0.8097  0.3836  0.0522
  739SOL    HW2 2353   4.091   2.360   4.996 -0.9815  0.5041 -0.4399
  740SOL     OW 2354   3.286   1.254   3.066  0.0860  0.0483 -0.1231
  740SOL    HW1 2355   3.355   1.302   3.019  1.7575 -1.1976  0.9251
  740SOL    HW2 2356   3.215   1.245   3.003  2.1579 -1.4538 -2.4249
  741SOL     OW 2357   1.782   2.995   2.985 -0.8873  0.3065 -0.5630
  741SOL    HW1 2358   1.861   2.984   2.931 -1.7408 -2.4251 -1.4239
  741SOL    HW2 2359   1.737   3.071   2.946  0.0025  0.2486 -1.7850
  742SOL     OW 2360   4.568   4.076   4.855  0.6197  0.0805  0.1703
  742SOL    HW1 2361   4.599   4.002   4.802 -0.9077  1.4864 -2.9612
  742SOL    HW2 2362   4.647   4.125   4.876  1.6099 -2.0509  1.8732
  743SOL     OW 2363   2.453   4.676   1.626 -0.8554 -0.0045 -0.0096
  743SOL    HW1 2364   2.529   4.732   1.609  0.0227 -0.9651  0.6366
  743SOL    HW2 2365   2.396   4.729   1.683 -2.0223  1.7713 -2.6023
  744SOL     OW 2366   3.696   4.682   3.329  0.0181 -0.0588 -0.0586
  744SOL    HW1 2367   3.627   4.662   3.392 -0.8846 -1.8074 -1.4978
  744SOL    HW2 2368   3.700   4.778   3.326 -0.3942  0.0601  2.0697
  745SOL     OW 2369   0.358   3.402   1.783  0.1511 -0.0528 -0.3343
  745SOL    HW1 2370   0.399   3.449   1.855 -1.3591 -0.9650  1.1971
  745SOL    HW2 2371   0.265   3.422   1.792 -0.1246 -0.5641 -1.7648
  746SOL     OW 2372   3.896   3.504   1.815  0.5261  0.2720 -0.1584
  746SOL    HW1 2373   3.907   3.411   1.834 -2.9323 -0.4826 -1.2451
  746SOL    HW2 2374   3.900   3.510   1.720  2.7326  1.6610 -0.0601
  747SOL     OW 2375   4.157   4.854   2.070  0.1428 -0.2987 -0.2971
  747SOL    HW1 2376   4.170   4.924   2.134 -1.1640 -0.6311  0.3820
  747SOL    HW2 2377   4.162   4.897   1.985 -0.9782  0.7148  0.1166
  748SOL     OW 2378   3.454   4.040   0.330  0.6115 -0.2524 -0.0615
  748SOL    HW1 2379   3.450   4.109   0.263  1.6235  2.2357  2.2672
  748SOL    HW2 2380   3.464   3.959   0.280  3.2588  1.6264 -2.9416
  749SOL     OW 2381   1.722   2.164   4.760 -0.4416 -0.4700 -0.5147
  749SOL    HW1 2382   1.725   2.203   4.673 -0.2707 -1.0248 -0.7603
  749SOL    HW2 2383   1.763   2.078   4.750 -0.8814 -0.7535 -0.0017
  750SOL     OW 2384   2.549   3.035   2.697 -0.0118  0.6072  0.1588
  750SOL    HW1 2385   2.514   3.124   2.699  1.1084  1.0829 -0.3152
  750SOL    HW2 2386   2.557   3.010   2.789 -0.5632  0.8928  0.2894
  751SOL     OW 2387   3.331   1.748   2.844  0.1441  0.1564 -0.3104
  751SOL    HW1 2388   3.363   1.661   2.819 -0.6762 -0.4631  0.7048
  751SOL    HW2 2389   3.408   1.794   2.877  0.4568 -0.4282 -0.2195
  752SOL     OW 2390   4.109   0.939   1.119 -0.0003  0.1840 -0.1795
  752SOL    HW1 2391   4.052   1.016   1.120 -0.7169 -0.3431 -0.0908
  752SOL    HW2 2392   4.194   0.973   1.089 -0.9108  0.6049 -2.4855
  753SOL     OW 2393   4.621   4.213   4.234 -0.3326  0.3036  0.2531
  753SOL    HW1 2394   4.666   4.189   4.315 -0.6928 -0.5070  0.2261
  753SOL    HW2 2395   4.528   4.203   4.255 -0.4101 -0.4093 -0.4061
  754SOL     OW 2396   2.457   4.988   4.613  0.2982 -0.1005  0.6844
  754SOL    HW1 2397   2.407   4.907   4.602 -2.4609  1.4132  1.0759
  754SOL    HW2 2398   2.440   5.038   4.533  2.4928 -0.1019  0.1560
  755SOL     OW 2399   4.012   3.461   1.296 -0.2198 -0.5279 -0.0231
  755SOL    HW1 2400   4.016   3.374   1.256  0.1919 -0.9860  0.9761
  755SOL    HW2 2401   3.972   3.516   1.229 -3.1714 -2.0582  0.3137
  756SOL     OW 2402   3.549   0.336   3.920 -0.0295  0.0596 -0.2435
  756SOL    HW1 2403   3.497   0.257   3.929 -2.3088  1.2452 -1.8779
  756SOL    HW2 2404   3.580   0.334   3.829  1.2128  0.3223  0.1535
  757SOL     OW 2405   0.239   2.061   4.274  0.7193 -0.2565  0.1849
  757SOL    HW1 2406   0.231   2.110   4.192 -0.1540 -0.1141  0.3426
  757SOL    HW2 2407   0.220   1.970   4.249 -3.4200  0.2461  0.7793
  758SOL     OW 2408   2.130   4.572   3.530 -0.2522 -0.2843  0.0104
  758SOL    HW1 2409   2.226   4.575   3.527 -0.1207 -1.4673  1.5611
  758SOL    HW2 2410   2.105   4.642   3.590 -0.4420  0.5675 -1.0336
  759SOL     OW 2411   1.445   2.983   4.148  0.1784 -0.7336 -0.2643
  759SOL    HW1 2412   1.529   2.944   4.171  0.2418  0.3101  1.5101
  759SOL    HW2 2413   1.448   2.994   4.053  2.4267  0.0578 -0.1670
  760SOL     OW 2414   1.313   0.936   2.957  0.6183  0.3908 -0.5656
  760SOL    HW1 2415   1.319   0.898   3.045 -1.9402 -2.2394 -1.3479
  760SOL    HW2 2416   1.398   0.918   2.917  0.4678 -2.1437  0.0830
  761SOL     OW 2417   0.082   3.455   1.175  0.3495 -0.3627  0.0916
  761SOL    HW1 2418   0.107   3.396   1.246 -0.1957  1.1724  1.6352
  761SOL    HW2 2419  -0.010   3.476   1.192  0.3323  0.3744 -0.8155
  762SOL     OW 2420   2.127   4.353   1.218 -0.1264  0.5854 -0.3532
  762SOL    HW1 2421   2.089   4.421   1.272 -0.6147  0.3430 -0.3909
  762SOL    HW2 2422   2.187   4.400   1.160  0.3292  0.8555  0.3218
  763SOL     OW 2423   1.405   1.148   4.875 -0.0500 -0.0501 -0.3639
  763SOL    HW1 2424   1.415   1.062   4.834  0.9987  0.6506 -1.6608
  763SOL    HW2 2425   1.441   1.210   4.811 -1.5033  1.4592  0.1825
  764SOL     OW 2426   4.311   4.884   5.000  0.1019  0.0244 -0.4656
  764SOL    HW1 2427   4.336   4.947   4.932  1.3097 -0.8469 -0.8746
  764SOL    HW2 2428   4.394   4.862   5.043 -0.1759 -1.7912 -0.7953
  765SOL     OW 2429   3.003   0.310   1.682 -0.1574 -0.6699  0.5862
  765SOL    HW1 2430   2.963   0.375   1.740  0.3219  0.4464 -0.2740
  765SOL    HW2 2431   2.932   0.249   1.662 -2.1475  2.1729 -2.2566
  766SOL     OW 2432   1.917   4.008   3.988  0.8316  0.0246 -0.8337
  766SOL    HW1 2433   1.899   3.960   3.907 -0.5576  0.8018 -1.0118
  766SOL    HW2 2434   1.986   4.070   3.964  0.8775 -0.1847 -1.2464
  767SOL     OW 2435   2.742   1.361   4.017  0.2834 -0.0658  0.2541
  767SOL    HW1 2436   2.739   1.269   4.042 -1.3090 -0.4264 -1.1089
  767SOL    HW2 2437   2.678   1.404   4.074  0.2149 -0.0051  0.1317
  768SOL     OW 2438   2.240   4.963   2.693  0.9673  0.0504  0.6603
  768SOL    HW1 2439   2.195   4.925   2.768  0.5328 -1.7204 -0.4489
  768SOL    HW2 2440   2.257   4.889   2.634 -1.0165  1.6496 -2.1859
  769SOL     OW 2441   4.773   0.129   4.842 -0.3725 -0.6447  0.7449
  769SOL    HW1 2442   4.807   0.095   4.760 -2.4167 -3.0941  0.8024
  769SOL    HW2 2443   4.807   0.069   4.909 -0.7338 -0.1420  1.3920
  770SOL     OW 2444   1.260   3.459   3.435  0.3498 -0.1090 -0.0919
  770SOL    HW1 2445   1.183   3.427   3.388 -0.6503  0.1732  1.2977
  770SOL    HW2 2446   1.278   3.392   3.501 -0.7016  1.2711  1.6991
  771SOL     OW 2447   4.464   5.024   3.838 -0.1931 -0.0440 -0.7777
  771SOL    HW1 2448   4.516   4.971   3.898  0.3528 -1.0343 -2.0951
  771SOL    HW2 2449   4.515   5.105   3.828  0.2666 -0.3277 -0.7673
  772SOL     OW 2450   3.084   4.849   4.153  0.1109 -0.5586  0.4314
  772SOL    HW1 2451   3.064   4.801   4.233  0.6999  0.8037  1.4402
  772SOL    HW2 2452   3.173   4.881   4.166  0.1999 -0.2798 -0.7531
  773SOL     OW 2453   2.109   3.140   2.914 -0.0678 -0.0370 -0.1615
  773SOL    HW1 2454   2.171   3.155   2.986 -0.8549  2.1761  0.1406
  773SOL    HW2 2455   2.116   3.219   2.860 -2.4082  0.1596 -0.2674
  774SOL     OW 2456   4.221   2.589   4.306 -0.0230 -0.5869 -0.1092
  774SOL    HW1 2457   4.176   2.580   4.222 -0.0964 -0.5693 -0.0718
  774SOL    HW2 2458   4.185   2.669   4.344  1.7893  0.8064 -1.1615
  775SOL     OW 2459   0.452   1.848   1.115  0.3042  0.6935 -0.1275
  775SOL    HW1 2460   0.450   1.899   1.196 -0.6627  0.2835  0.1255
  775SOL    HW2 2461   0.418   1.907   1.048 -1.1858  0.2770  0.2390
  776SOL     OW 2462   1.484   4.830   0.494  0.7155  0.0090 -1.0921
  776SOL    HW1 2463   1.476   4.797   0.405  0.4189 -0.3627 -0.9293
  776SOL    HW2 2464   1.414   4.895   0.502 -0.9513 -1.7705 -0.3294
  777SOL     OW 2465   5.018   2.103   2.702  0.7132  0.2572  0.2483
  777SOL    HW1 2466   4.952   2.172   2.708  0.1883 -0.2689  0.6454
  777SOL    HW2 2467   5.067   2.109   2.783  0.4772 -0.0190  0.4142
  778SOL     OW 2468   5.001   3.202   4.074 -0.7151 -0.5009 -0.2313
  778SOL    HW1 2469   5.074   3.215   4.135 -2.1435  1.2948  1.2589
  778SOL    HW2 2470   4.962   3.119   4.100 -2.0086  0.7552  2.2823
  779SOL     OW 2471   2.347   4.314   0.451 -0.2010  0.0403  0.0638
  779SOL    HW1 2472   2.430   4.322   0.498 -0.4215 -0.7855  0.6261
  779SOL    HW2 2473   2.322   4.222   0.464 -0.7174  0.0368 -0.9190
  780SOL     OW 2474   1.800   2.388   3.338  0.1047 -0.2500  0.4146
  780SOL    HW1 2475   1.776   2.395   3.431  3.4333 -0.8354  1.4361
  780SOL    HW2 2476   1.726   2.342   3.299 -0.5209 -1.8939  3.2212
  781SOL     OW 2477   0.121   0.541   3.081 -0.4090 -0.0710 -0.3303
  781SOL    HW1 2478   0.211   0.511   3.068 -0.8379 -1.0696 -1.1216
  781SOL    HW2 2479   0.075   0.466   3.118 -0.8664  0.5196  0.3319
  782SOL     OW 2480   5.006   4.719   2.555 -0.3341  0.2135  0.1730
  782SOL    HW1 2481   5.056   4.643   2.585  1.3593  0.4017 -1.9919
  782SOL    HW2 2482   4.915   4.690   2.561  0.1864 -1.4416  0.8249
  783SOL     OW 2483   4.112   1.232   3.812  0.0134 -0.0508  0.7701
  783SOL    HW1 2484   4.102   1.326   3.826  0.6079  0.1672 -0.2274
  783SOL    HW2 2485   4.073   1.216   3.727  1.3889 -0.4202  0.1800
  784SOL     OW 2486   1.701   4.709   4.184 -0.1426 -0.2028  0.3802
  784SOL    HW1 2487   1.663   4.626   4.156 -0.1491 -0.0471 -0.0694
  784SOL    HW2 2488   1.727   4.694   4.275 -0.3106 -0.6390  0.3559
  785SOL     OW 2489   1.765   2.136   2.109 -0.3964  0.3528 -0.5472
  785SOL    HW1 2490   1.794   2.109   2.021  1.1527  2.9891 -0.9657
  785SOL    HW2 2491   1.687   2.189   2.093  1.4060  3.1900 -0.8060
  786SOL     OW 2492   2.794   2.849   0.344  0.5845  0.5719  0.3310
  786SOL    HW1 2493   2.736   2.787   0.388 -0.9208  0.5426 -1.5684
  786SOL    HW2 2494   2.779   2.932   0.388 -2.8155  1.1396 -1.5247
  787SOL     OW 2495   4.589   2.510   1.584  0.0661 -0.3972  0.7726
  787SOL    HW1 2496   4.525   2.439   1.590 -0.1593 -0.2378  0.3476
  787SOL    HW2 2497   4.646   2.498   1.660  0.7661 -1.7508  0.0843
  788SOL     OW 2498   3.432   0.074   3.930 -0.0397 -0.2763 -0.0495
  788SOL    HW1 2499   3.461   0.005   3.871  1.8855  0.1319  0.3580
  788SOL    HW2 2500   3.426   0.032   4.016  0.3733 -0.1256  0.0561
  789SOL     OW 2501   1.420   0.335   3.588 -0.1090 -0.0262  0.1442
  789SOL    HW1 2502   1.390   0.245   3.589 -0.6302  0.1196 -0.7655
  789SOL    HW2 2503   1.373   0.375   3.514  1.4381  0.5129 -0.5969
  790SOL     OW 2504   1.714   1.717   3.329 -0.3241 -0.5134  0.1730
  790SOL    HW1 2505   1.771   1.792   3.348 -0.3801 -0.7279  1.2766
  790SOL    HW2 2506   1.720   1.706   3.235  3.7576 -2.2672  0.4015
  791SOL     OW 2507   3.393   3.678   0.470  0.8479 -0.4708  0.2643
  791SOL    HW1 2508   3.449   3.630   0.409  1.2623 -0.4695  0.6404
  791SOL    HW2 2509   3.412   3.640   0.556  0.4509 -0.3054  0.4291
  792SOL     OW 2510   4.810   2.326   2.715 -0.3527 -0.7028  0.5403
  792SOL    HW1 2511   4.716   2.314   2.728 -0.3403  0.9667  2.7993
  792SOL    HW2 2512   4.818   2.379   2.636 -1.3701 -0.1014  0.8318
  793SOL     OW 2513   4.755   3.472   0.799  0.1999 -0.5052 -0.2208
  793SOL    HW1 2514   4.711   3.389   0.818  0.7428 -0.3881  1.8010
  793SOL    HW2 2515   4.707   3.537   0.849  0.5403  0.2069 -0.7962
  794SOL     OW 2516   2.048   4.835   3.374 -0.7761  0.5286  0.1632
  794SOL    HW1 2517   1.963   4.798   3.397 -0.9617  1.5319  1.2028
  794SOL    HW2 2518   2.101   4.760   3.347 -1.7050 -0.2276  0.4055
  795SOL     OW 2519   4.175   3.502   4.485  0.2010  0.1798 -0.9732
  795SOL    HW1 2520   4.182   3.597   4.481 -2.1539  0.4503 -0.5636
  795SOL    HW2 2521   4.149   3.476   4.397  0.6787 -0.0677 -1.0419
  796SOL     OW 2522   1.514   4.759   3.600  0.3593  0.5007 -0.0536
  796SOL    HW1 2523   1.449   4.693   3.622 -1.8406  2.1590 -1.1746
  796SOL    HW2 2524   1.559   4.778   3.683  0.6491 -1.8682  0.4087
  797SOL     OW 2525   1.518   2.495   0.750 -0.0600 -0.1835  0.4546
  797SOL    HW1 2526   1.531   2.583   0.787  0.2221 -0.6441  1.4924
  797SOL    HW2 2527   1.569   2.496   0.669 -2.0731  1.4201 -0.9201
  798SOL     OW 2528   1.042   1.728   3.474 -0.2510  0.3438 -0.2180
  798SOL    HW1 2529   0.986   1.654   3.450  2.8079 -2.1009 -0.4173
  798SOL    HW2 2530   1.088   1.751   3.393  0.8401  0.5641  0.4362
  799SOL     OW 2531   4.942   1.654   1.392  0.1487  0.6507 -0.3565
  799SOL    HW1 2532   4.915   1.742   1.419 -0.3704 -0.2771  2.4971
  799SOL    HW2 2533   5.030   1.645   1.428 -0.4169 -0.5229  0.7960
  800SOL     OW 2534   0.691   1.416   4.206  0.5871  0.2194 -0.0923
  800SOL    HW1 2535   0.718   1.341   4.259  1.3169  0.1522 -0.5404
  800SOL    HW2 2536   0.602   1.396   4.178  0.7201 -0.4084 -0.0778
  801SOL     OW 2537   0.885   3.593   3.987 -0.5620 -0.4019  0.7024
  801SOL    HW1 2538   0.931   3.510   3.998 -0.6400 -0.6505 -0.6254
  801SOL    HW2 2539   0.805   3.584   4.039 -0.1956 -0.8575  1.1867
  802SOL     OW 2540   1.584   0.390   4.687  0.1033  0.2299  0.3775
  802SOL    HW1 2541   1.655   0.437   4.644 -0.6142 -1.1418 -2.5850
  802SOL    HW2 2542   1.504   0.433   4.655 -0.5125 -1.9878 -1.3674
  803SOL     OW 2543   4.309   4.950   4.541 -0.3355  0.2660 -0.2159
  803SOL    HW1 2544   4.299   4.940   4.446  0.8542  0.7766 -0.4205
  803SOL    HW2 2545   4.282   4.866   4.577 -4.8273  1.2634 -0.6140
  804SOL     OW 2546   1.101   1.485   2.660 -0.0663 -0.5522  0.3811
  804SOL    HW1 2547   1.163   1.428   2.613  0.8968  0.0607  0.8617
  804SOL    HW2 2548   1.112   1.461   2.752 -2.5922 -2.3840  0.3152
  805SOL     OW 2549   1.796   4.441   4.784 -0.2876 -0.3045  0.1205
  805SOL    HW1 2550   1.862   4.376   4.760  0.6903  0.6195  0.2141
  805SOL    HW2 2551   1.739   4.446   4.707  1.2366  0.6760 -1.0245
  806SOL     OW 2552   4.832   4.581   0.399 -0.1935 -0.0560  0.2483
  806SOL    HW1 2553   4.762   4.523   0.430 -1.0636  1.3784  1.1086
  806SOL    HW2 2554   4.906   4.523   0.382 -1.8141 -1.7606 -1.5355
  807SOL     OW 2555   1.900   3.286   1.906 -0.7162  0.3090  0.4601
  807SOL    HW1 2556   1.953   3.366   1.901  0.9305 -0.7012  0.7466
  807SOL    HW2 2557   1.842   3.299   1.981  1.3142  0.2688  2.1329
  808SOL     OW 2558   5.040   4.451   4.145 -0.7253 -0.0673 -0.0122
  808SOL    HW1 2559   5.060   4.513   4.215  2.5616  0.7858 -1.5197
  808SOL    HW2 2560   4.991   4.503   4.081 -0.0872  0.3628 -0.1724
  809SOL     OW 2561   3.235   2.032   4.381 -0.1099  0.1190 -0.3055
  809SOL    HW1 2562   3.303   1.966   4.366  0.5320  0.2128  1.7911
  809SOL    HW2 2563   3.284   2.109   4.409 -1.0420  0.2180  1.1574
  810SOL     OW 2564   4.464   1.064   3.306 -0.3171 -0.5988 -0.0161
  810SOL    HW1 2565   4.447   0.979   3.267  0.8907 -1.4551  1.2591
  810SOL    HW2 2566   4.556   1.062   3.332 -1.5544 -1.2648  5.4257
  811SOL     OW 2567   0.835   3.848   1.790  0.4922 -0.4083  0.3486
  811SOL    HW1 2568   0.900   3.783   1.817 -1.5771 -2.3384  0.9838
  811SOL    HW2 2569   0.791   3.809   1.715 -0.6898  0.3331  0.6297
  812SOL     OW 2570   3.477   5.003   3.675  0.7932  0.4152 -0.5194
  812SOL    HW1 2571   3.568   5.030   3.691  0.4419  2.8973 -2.2485
  812SOL    HW2 2572   3.485   4.931   3.612  1.5854 -0.1351  0.1875
  813SOL     OW 2573   0.346   4.263   4.342 -0.2580  0.0478  0.1876
  813SOL    HW1 2574   0.305   4.178   4.329  2.5162 -1.1003 -2.1211
  813SOL    HW2 2575   0.385   4.258   4.429  0.5529 -1.4180 -0.2252
  814SOL     OW 2576   4.102   2.049   0.682 -0.0146 -1.0129 -0.1036
  814SOL    HW1 2577   4.110   2.031   0.776  2.1180 -0.4995 -0.1381
  814SOL    HW2 2578   4.086   2.143   0.678  0.6233 -0.9081 -0.2640
  815SOL     OW 2579   0.554   2.490   4.225 -0.1774  0.4528 -0.4121
  815SOL    HW1 2580   0.539   2.527   4.138  2.4187  1.7491 -0.3852
  815SOL    HW2 2581   0.554   2.395   4.211  1.9383  0.6405 -2.2212
  816SOL     OW 2582   1.221   3.274   1.095 -0.3776 -0.4564 -0.4654
  816SOL    HW1 2583   1.192   3.363   1.078  0.2080 -0.4121 -1.3290
  816SOL    HW2 2584   1.190   3.224   1.020  1.0750 -0.5459 -1.0458
  817SOL     OW 2585   1.810   0.804   2.701  0.0920 -0.5197 -0.2763
  817SOL    HW1 2586   1.782   0.739   2.766 -0.6578 -2.3854 -2.3335
  817SOL    HW2 2587   1.859   0.753   2.636  2.3750  1.5713 -0.3271
  818SOL     OW 2588   2.178   0.592   1.361  0.6441 -0.4245 -0.5718
  818SOL    HW1 2589   2.182   0.526   1.430 -0.1393 -0.3892 -0.4814
  818SOL    HW2 2590   2.268   0.601   1.331  0.6130 -2.4993 -1.4844
  819SOL     OW 2591   2.645   1.933   1.668  0.1681  0.4449  0.3304
  819SOL    HW1 2592   2.567   1.889   1.702  0.6193 -0.5554  0.0907
  819SOL    HW2 2593   2.611   2.003   1.613 -0.5686 -0.2281 -0.0807
  820SOL     OW 2594   0.139   3.186   1.793  0.1681  0.2414  0.4521
  820SOL    HW1 2595   0.194   3.199   1.715  2.0977 -0.6991  1.5884
  820SOL    HW2 2596   0.102   3.273   1.810 -0.0424  0.5402 -1.3082
  821SOL     OW 2597   0.398   2.080   1.860  0.0710 -0.2002  0.4139
  821SOL    HW1 2598   0.373   1.995   1.897 -0.4021 -0.6045 -0.7872
  821SOL    HW2 2599   0.437   2.058   1.775  0.8708  0.7181  0.5359
  822SOL     OW 2600   1.250   4.082   2.059 -0.0767  0.4989 -0.4215
  822SOL    HW1 2601   1.301   4.034   2.124  3.6371  1.0115 -2.6458
  822SOL    HW2 2602   1.221   4.161   2.106  2.4534  0.8674  0.7559
  823SOL     OW 2603   2.132   3.336   0.025 -0.3940 -0.5225  0.1456
  823SOL    HW1 2604   2.113   3.430   0.021  0.9372 -0.2485 -0.2302
  823SOL    HW2 2605   2.051   3.297   0.057 -0.3221  0.9632  2.3541
  824SOL     OW 2606   4.995   0.536   3.711 -0.1655  0.3235  0.0925
  824SOL    HW1 2607   5.052   0.510   3.784  0.1692 -1.8896 -0.8887
  824SOL    HW2 2608   4.913   0.561   3.753 -0.2703 -1.7249  1.2228
  825SOL     OW 2609   0.930   2.528   0.600  0.6443 -0.8800 -0.2565
  825SOL    HW1 2610   0.920   2.599   0.537  1.3308 -0.4074  0.1624
  825SOL    HW2 2611   0.854   2.472   0.584 -0.3650  0.3820 -0.0136
  826SOL     OW 2612   3.839   1.619   3.044 -0.5261 -0.0328 -0.5338
  826SOL    HW1 2613   3.782   1.622   3.121  0.9234  0.6846  0.5625
  826SOL    HW2 2614   3.870   1.709   3.033  1.5055 -0.6319 -0.2112
  827SOL     OW 2615   4.156   4.131   2.258  0.1572 -0.0418 -0.5577
  827SOL    HW1 2616   4.213   4.206   2.245 -0.3829  0.3009 -0.9745
  827SOL    HW2 2617   4.214   4.061   2.288  0.4976  0.8544  1.0099
  828SOL     OW 2618   4.033   3.033   0.531 -0.1738 -0.8713 -0.2999
  828SOL    HW1 2619   3.964   3.079   0.577 -0.7129  1.5613 -3.2383
  828SOL    HW2 2620   3.992   3.001   0.451  1.5750 -1.4151 -1.0423
  829SOL     OW 2621   4.237   3.638   2.421  0.0201 -0.4149 -0.4310
  829SOL    HW1 2622   4.263   3.546   2.431  5.6481  0.8886  0.3670
  829SOL    HW2 2623   4.230   3.670   2.511  1.6119  0.5777 -0.6166
  830SOL     OW 2624   4.667   2.720   2.929 -0.1095 -0.1280 -0.5180
  830SOL    HW1 2625   4.748   2.675   2.954 -0.4126 -0.5253 -0.2382
  830SOL    HW2 2626   4.646   2.685   2.843 -0.4228 -0.6369 -0.2391
  831SOL     OW 2627   2.983   3.134   4.103  0.0275  0.5034  0.1572
  831SOL    HW1 2628   2.905   3.125   4.048  0.9673  0.1572 -1.1952
  831SOL    HW2 2629   2.951   3.170   4.185 -1.3770  1.6070 -0.8239
  832SOL     OW 2630   4.309   3.412   2.973 -0.0597  0.3125  0.4400
  832SOL    HW1 2631   4.235   3.457   2.934 -0.0093 -0.7124 -0.8800
  832SOL    HW2 2632   4.285   3.404   3.066 -2.7929 -2.2283 -0.3485
  833SOL     OW 2633   2.269   3.969   2.804 -0.2462 -0.2300  0.8630
  833SOL    HW1 2634   2.218   3.948   2.882 -1.2232  1.4495  0.7106
  833SOL    HW2 2635   2.352   4.004   2.838 -0.5570  0.2347  1.1460
  834SOL     OW 2636   2.518   2.579   3.865 -0.3649  0.2508 -0.1685
  834SOL    HW1 2637   2.509   2.634   3.788  0.9363 -0.3798 -0.7990
  834SOL    HW2 2638   2.509   2.639   3.939 -0.6165  1.0268 -0.8129
  835SOL     OW 2639   4.365   0.804   0.993 -0.5439 -0.7364  0.4034
  835SOL    HW1 2640   4.424   0.761   0.931  0.4964  0.6496  0.3808
  835SOL    HW2 2641   4.292   0.835   0.939  0.3811  0.5105 -0.1841
  836SOL     OW 2642   0.351   3.217   2.856  0.2345  0.1138  0.2604
  836SOL    HW1 2643   0.341   3.161   2.933  1.1424 -0.8870 -0.3395
  836SOL    HW2 2644   0.365   3.157   2.783  0.0159  1.0777 -0.6059
  837SOL     OW 2645   1.429   3.823   4.749  0.1013  0.3073  0.0803
  837SOL    HW1 2646   1.496   3.890   4.737 -1.3656  1.4005 -3.1543
  837SOL    HW2 2647   1.444   3.760   4.678  0.0303 -1.6098  1.6688
  838SOL     OW 2648   1.611   4.306   3.373  0.1677 -0.4320  0.0595
  838SOL    HW1 2649   1.597   4.384   3.426  0.0400 -0.6426  0.3387
  838SOL    HW2 2650   1.644   4.339   3.290 -1.1525  0.0247 -0.3109
  839SOL     OW 2651   2.363   2.454   3.209  0.4864 -0.3546  0.4207
  839SOL    HW1 2652   2.340   2.404   3.130 -0.4858  0.5548  0.1055
  839SOL    HW2 2653   2.278   2.474   3.250  0.8106  1.4136  0.2964
  840SOL     OW 2654   2.163   4.090   4.211 -0.2213  0.0533 -0.0129
  840SOL    HW1 2655   2.257   4.097   4.195 -0.1511 -3.5154 -2.2718
  840SOL    HW2 2656   2.122   4.121   4.131 -0.9934  0.9475  0.7018
  841SOL     OW 2657   3.155   2.216   0.562 -0.0249 -0.0559 -0.1479
  841SOL    HW1 2658   3.185   2.175   0.480  0.5017  1.6546 -0.8516
  841SOL    HW2 2659   3.078   2.267   0.536  0.5387  1.0395  0.2598
  842SOL     OW 2660   1.103   2.988   4.535 -0.3798  0.5598  0.2198
  842SOL    HW1 2661   1.062   3.073   4.551  1.7787  1.7322 -0.1327
  842SOL    HW2 2662   1.029   2.928   4.526 -1.9603  2.0362  2.2184
  843SOL     OW 2663   2.007   4.105   1.252 -0.5672 -0.5265 -0.2173
  843SOL    HW1 2664   1.955   4.124   1.331 -0.9688  0.0598 -0.6103
  843SOL    HW2 2665   2.059   4.184   1.239 -0.2881 -0.7386 -0.3801
  844SOL     OW 2666   2.402   1.242   2.695  0.4033  0.3496  0.0848
  844SOL    HW1 2667   2.466   1.312   2.690  1.5806 -0.7664 -1.4308
  844SOL    HW2 2668   2.453   1.161   2.695 -0.9369 -0.6008 -1.6150
  845SOL     OW 2669   2.461   2.197   0.742  0.4557 -0.6125  0.2156
  845SOL    HW1 2670   2.414   2.115   0.731 -2.8025  0.8934  1.5269
  845SOL    HW2 2671   2.534   2.175   0.801 -1.0972 -2.3543  1.6148
  846SOL     OW 2672   3.408   1.355   1.527 -0.6165  0.0056  0.0125
  846SOL    HW1 2673   3.441   1.445   1.522 -0.2605 -0.1440 -0.3720
  846SOL    HW2 2674   3.372   1.338   1.440  1.8221 -1.1683 -0.8395
  847SOL     OW 2675   3.912   2.081   4.339  0.2417  0.4699 -0.3472
  847SOL    HW1 2676   3.883   2.119   4.423 -1.6638  1.2985 -1.3110
  847SOL    HW2 2677   3.987   2.135   4.313 -0.3954  1.4982 -0.1162
  848SOL     OW 2678   4.722   2.132   0.978 -0.1948  0.4744  0.6032
  848SOL    HW1 2679   4.648   2.151   1.036  0.2525  1.2011  0.9520
  848SOL    HW2 2680   4.761   2.218   0.962  0.8580  0.0396  0.8095
  849SOL     OW 2681   3.308   3.172   2.529  1.0129 -0.5333 -0.4132
  849SOL    HW1 2682   3.335   3.241   2.469 -0.0459 -0.1775 -0.5061
  849SOL    HW2 2683   3.214   3.160   2.511  0.3882  0.3472  1.8986
  850SOL     OW 2684   3.587   3.128   3.413 -0.1406 -0.3591 -0.2116
  850SOL    HW1 2685   3.503   3.092   3.383  0.1481 -0.9970 -0.2688
  850SOL    HW2 2686   3.573   3.146   3.506 -0.5912  0.2868 -0.4003
  851SOL     OW 2687   4.507   2.227   1.531  0.3307  0.1373  0.1538
  851SOL    HW1 2688   4.475   2.140   1.507 -0.3289  0.5352 -0.4308
  851SOL    HW2 2689   4.603   2.219   1.528  0.2860 -0.1571 -1.4608
  852SOL     OW 2690   4.477   1.420   0.594  0.1950  0.4657  0.2304
  852SOL    HW1 2691   4.427   1.487   0.641  0.1476 -0.1129  1.0202
  852SOL    HW2 2692   4.546   1.394   0.656 -0.3232 -0.8366  0.2747
  853SOL     OW 2693   0.061   4.609   1.147  0.2392  0.0536  0.0279
  853SOL    HW1 2694   0.094   4.689   1.188  0.7160 -0.6810  1.1360
  853SOL    HW2 2695  -0.034   4.615   1.155  0.2863  0.3754  0.3861
  854SOL     OW 2696   0.520   4.444   1.194  0.2110 -0.1724  0.5979
  854SOL    HW1 2697   0.613   4.427   1.206 -0.0186 -1.8216  0.2928
  854SOL    HW2 2698   0.477   4.388   1.259 -0.5724  0.6182  0.7797
  855SOL     OW 2699   4.989   1.927   2.501  0.3706  0.1665  0.5433
  855SOL    HW1 2700   5.009   1.991   2.570 -2.9253  0.8072  1.0666
  855SOL    HW2 2701   4.945   1.978   2.433  1.8158 -0.8164 -1.2260
  856SOL     OW 2702   2.850   2.471   2.509 -0.1717 -0.0152  0.3519
  856SOL    HW1 2703   2.942   2.467   2.482  0.3588 -0.6794  2.0895
  856SOL    HW2 2704   2.827   2.379   2.527 -1.1637  0.1518 -0.0239
  857SOL     OW 2705   0.192   1.151   1.002  0.7451  0.1242  0.0512
  857SOL    HW1 2706   0.110   1.185   1.036 -0.0000 -3.1329  1.8634
  857SOL    HW2 2707   0.260   1.200   1.050 -0.2240  0.0461  1.5694
  858SOL     OW 2708   0.621   3.666   3.214 -0.0594 -0.0527  0.4391
  858SOL    HW1 2709   0.546   3.699   3.264 -1.4913  0.5010 -1.8841
  858SOL    HW2 2710   0.650   3.741   3.162  0.0597 -1.0496 -0.9960
  859SOL     OW 2711   0.626   0.160   3.858 -0.3406 -0.0250 -0.6028
  859SOL    HW1 2712   0.654   0.111   3.935 -4.8966  0.7225  1.8805
  859SOL    HW2 2713   0.593   0.093   3.797 -1.6685 -0.4073  0.4922
  860SOL     OW 2714   3.188   3.159   0.252 -0.1007 -0.6516  0.3187
  860SOL    HW1 2715   3.154   3.164   0.341  1.4402 -0.5161  0.9272
  860SOL    HW2 2716   3.133   3.219   0.202 -1.7779 -1.6366  0.8751
  861SOL     OW 2717   2.903   0.620   4.047  0.3443 -0.0926 -0.4162
  861SOL    HW1 2718   2.927   0.673   3.971 -0.7746  2.8899  1.1514
  861SOL    HW2 2719   2.870   0.683   4.111  1.6034 -2.3931  2.7631
  862SOL     OW 2720   1.257   4.924   3.554  0.0506 -0.3727  0.1698
  862SOL    HW1 2721   1.216   4.859   3.497  0.0702 -0.9846  0.8448
  862SOL    HW2 2722   1.326   4.877   3.600 -1.7323 -0.6681  2.7821
  863SOL     OW 2723   2.286   0.648   3.210  0.5568  0.1923  0.3035
  863SOL    HW1 2724   2.272   0.738   3.182 -2.0435 -0.4835 -0.8795
  863SOL    HW2 2725   2.381   0.636   3.207  1.0722  3.1069  1.3967
  864SOL     OW 2726   1.732   2.354   1.305 -0.1105  1.1774  0.0235
  864SOL    HW1 2727   1.648   2.381   1.267 -1.7790 -2.2630  0.9167
  864SOL    HW2 2728   1.779   2.315   1.232 -0.7403  0.1108  0.1651
  865SOL     OW 2729   3.454   0.788   3.943 -0.0229 -0.6226  0.4882
  865SOL    HW1 2730   3.502   0.738   4.009 -1.6634 -3.1620 -0.1058
  865SOL    HW2 2731   3.495   0.762   3.860 -0.5651 -0.5814  0.2065
  866SOL     OW 2732   3.546   1.147   0.109  0.0819  0.1207  0.1005
  866SOL    HW1 2733   3.596   1.174   0.033 -1.3276  0.7670 -0.6354
  866SOL    HW2 2734   3.513   1.061   0.087  0.4871 -0.1186  0.4065
  867SOL     OW 2735   3.799   1.845   0.056  0.4235  0.0962 -0.3113
  867SOL    HW1 2736   3.720   1.889   0.087  1.4472  0.3042  2.3092
  867SOL    HW2 2737   3.809   1.770   0.115  0.8735 -1.3733 -2.1672
  868SOL     OW 2738   1.639   0.712   4.941  0.0347 -0.0766 -0.9586
  868SOL    HW1 2739   1.587   0.772   4.887  1.0337  1.5899 -0.1634
  868SOL    HW2 2740   1.686   0.657   4.878 -0.7720  0.0898 -1.7199
  869SOL     OW 2741   2.308   4.803   0.940 -0.5325  0.1147  0.2948
  869SOL    HW1 2742   2.229   4.856   0.930  0.3980  1.5462  0.2414
  869SOL    HW2 2743   2.374   4.847   0.887  1.3289  1.1587  3.2296
  870SOL     OW 2744   0.422   4.789   4.841 -0.2736  0.2803  0.1611
  870SOL    HW1 2745   0.373   4.868   4.863 -1.1046  0.0225 -0.7287
  870SOL    HW2 2746   0.359   4.718   4.851  0.0667 -0.1171 -0.4509
  871SOL     OW 2747   5.013   1.444   2.099  0.1718 -0.0459 -0.6361
  871SOL    HW1 2748   5.058   1.411   2.022  1.6344  2.0076 -0.7581
  871SOL    HW2 2749   4.992   1.366   2.150  3.1932 -1.2276 -0.9831
  872SOL     OW 2750   2.778   2.953   1.271 -0.2170 -0.3014 -0.3016
  872SOL    HW1 2751   2.834   3.011   1.323  2.7178 -0.2593 -3.2173
  872SOL    HW2 2752   2.689   2.986   1.287  0.6260  0.7590  3.1843
  873SOL     OW 2753   1.344   3.628   0.844 -0.0479  0.4120 -0.0785
  873SOL    HW1 2754   1.400   3.666   0.912 -0.1423  0.1494  0.1494
  873SOL    HW2 2755   1.405   3.583   0.785  0.1838  1.8508 -0.9914
  874SOL     OW 2756   2.596   4.746   1.988 -0.1829 -0.4040  0.2710
  874SOL    HW1 2757   2.653   4.785   1.922 -2.1033 -0.8665 -1.7676
  874SOL    HW2 2758   2.639   4.664   2.011  0.1110 -0.6611 -1.0816
  875SOL     OW 2759   0.002   4.922   4.853  0.0322 -0.4297  0.1895
  875SOL    HW1 2760  -0.032   4.838   4.885  0.6173  0.1713  2.6380
  875SOL    HW2 2761   0.096   4.908   4.843  0.0720 -0.1794  0.2095
  876SOL     OW 2762   2.124   1.313   2.351  0.1341  0.7771  0.7954
  876SOL    HW1 2763   2.191   1.248   2.329 -0.1630  0.1102  1.7614
  876SOL    HW2 2764   2.138   1.330   2.444 -0.7548  0.9550  0.9046
  877SOL     OW 2765   1.609   2.402   0.243 -0.4174 -0.5398  0.0659
  877SOL    HW1 2766   1.665   2.463   0.194  0.0785  1.2742  2.7100
  877SOL    HW2 2767   1.521   2.419   0.209  0.0691 -0.5066 -1.2668
  878SOL     OW 2768   2.253   0.233   0.847 -0.1270 -0.0674 -0.6243
  878SOL    HW1 2769   2.285   0.181   0.920 -1.4047 -1.4421 -0.9855
  878SOL    HW2 2770   2.329   0.244   0.790  0.0680 -2.1054 -0.8272
  879SOL     OW 2771   3.755   3.285   2.656 -0.4037  0.1741 -0.6337
  879SOL    HW1 2772   3.841   3.319   2.677  0.7130 -1.7177 -1.8286
  879SOL    HW2 2773   3.755   3.276   2.560 -1.1661 -1.6435 -0.5031
  880SOL     OW 2774   2.441   1.162   0.843  0.1885  0.3729 -0.2491
  880SOL    HW1 2775   2.449   1.089   0.781  2.6051  1.3303 -1.1992
  880SOL    HW2 2776   2.514   1.220   0.821 -1.9030  3.3530  0.1901
  881SOL     OW 2777   1.873   2.779   1.454  0.0867 -0.0538  0.6179
  881SOL    HW1 2778   1.913   2.745   1.534  2.3648  2.1141  0.5118
  881SOL    HW2 2779   1.829   2.860   1.481  1.8891  1.3479 -0.4317
  882SOL     OW 2780   3.130   1.347   3.841 -0.1398  0.8050 -0.0744
  882SOL    HW1 2781   3.147   1.377   3.751  0.7816 -0.6119 -0.4016
  882SOL    HW2 2782   3.110   1.428   3.889 -0.4020  1.6249 -1.4785
  883SOL     OW 2783   0.768   4.422   2.850 -0.3900 -0.0920  1.0382
  883SOL    HW1 2784   0.827   4.353   2.818 -1.8496 -0.7059 -0.4666
  883SOL    HW2 2785   0.743   4.471   2.772 -0.3630  1.3953  1.9214
  884SOL     OW 2786   1.511   1.595   3.989  0.3087 -0.3186 -0.4563
  884SOL    HW1 2787   1.524   1.688   4.007  0.0300 -0.0977 -1.3362
  884SOL    HW2 2788   1.416   1.586   3.978  0.4513 -0.4222 -1.7833
  885SOL     OW 2789   1.002   2.794   0.020 -0.0517 -0.6433  0.8564
  885SOL    HW1 2790   0.964   2.731   0.081 -2.0000 -1.2996 -0.9140
  885SOL    HW2 2791   0.929   2.849  -0.007  1.4183  1.8420  1.5990
  886SOL     OW 2792   4.272   2.184   3.075 -0.0107 -0.1997 -0.3183
  886SOL    HW1 2793   4.331   2.247   3.115 -1.0304  0.0103  0.9379
  886SOL    HW2 2794   4.256   2.119   3.144 -2.8200  0.8461  0.1412
  887SOL     OW 2795   1.865   2.169   5.022 -0.3152  0.2992  0.1578
  887SOL    HW1 2796   1.819   2.153   4.940  1.8124 -0.7066 -0.9170
  887SOL    HW2 2797   1.904   2.256   5.011  0.3752 -0.0438 -0.0898
  888SOL     OW 2798   3.183   3.007   4.937 -0.9237 -0.9041  0.8432
  888SOL    HW1 2799   3.168   3.038   4.847 -0.0454  0.2435  1.0593
  888SOL    HW2 2800   3.274   3.033   4.955  0.1100 -4.1807  0.8688
  889SOL     OW 2801   2.693   1.967   2.023 -0.5416 -0.5542  0.1465
  889SOL    HW1 2802   2.772   1.948   1.972  0.3624 -0.2054  1.3615
  889SOL    HW2 2803   2.712   1.934   2.110 -0.7053  1.7871  1.1530
  890SOL     OW 2804   4.522   3.652   1.021  0.0917  0.0078  0.0361
  890SOL    HW1 2805   4.571   3.651   1.103 -1.1699  0.3471  0.8198
  890SOL    HW2 2806   4.463   3.727   1.029 -2.0811 -1.6437  0.0546
  891SOL     OW 2807   0.578   1.053   1.965  0.3051  0.4276  0.1983
  891SOL    HW1 2808   0.556   1.093   2.049  0.7935  2.4130 -0.5634
  891SOL    HW2 2809   0.500   1.067   1.911  0.5215  0.4156 -0.1180
  892SOL     OW 2810   1.189   3.744   4.853  0.3530  0.1618  0.1977
  892SOL    HW1 2811   1.272   3.772   4.813 -0.3656  0.5432 -1.0586
  892SOL    HW2 2812   1.124   3.804   4.817 -0.7414 -1.1728 -0.1256
  893SOL     OW 2813   2.531   2.478   2.346  0.0173  0.2139  0.0209
  893SOL    HW1 2814   2.525   2.408   2.411 -1.1449  0.4005  0.1485
  893SOL    HW2 2815   2.447   2.476   2.301  0.3578  0.8698 -0.6646
  894SOL     OW 2816   1.873   2.947   1.133 -0.5874  0.5480  0.4057
  894SOL    HW1 2817   1.818   2.872   1.156  0.6522 -1.0746 -1.5848
  894SOL    HW2 2818   1.871   3.002   1.211 -2.3968 -1.0215  1.5672
  895SOL     OW 2819   3.166   2.339   1.266  0.0387 -0.1330  0.0340
  895SOL    HW1 2820   3.085   2.288   1.262 -0.2112  0.2810 -0.4536
  895SOL    HW2 2821   3.144   2.421   1.222  0.7051  0.0131 -0.0383
  896SOL     OW 2822   3.223   3.880   2.439 -0.5330  0.5923 -0.1741
  896SOL    HW1 2823   3.147   3.929   2.469 -3.1460 -1.5692 -2.7313
  896SOL    HW2 2824   3.238   3.815   2.507 -0.1605  1.7468  0.8896
  897SOL     OW 2825   4.803   3.972   1.261 -0.8136  0.6867  0.3243
  897SOL    HW1 2826   4.838   4.054   1.296 -0.4088  0.3746  0.6579
  897SOL    HW2 2827   4.867   3.945   1.195 -1.3382  1.0311 -0.3332
  898SOL     OW 2828   3.279   0.918   1.627 -0.3742  0.0653  0.7132
  898SOL    HW1 2829   3.296   0.922   1.721 -0.7808  0.2382  0.7793
  898SOL    HW2 2830   3.245   1.005   1.604 -0.1292  0.0771  0.3752
  899SOL     OW 2831   4.413   0.650   2.129 -0.3972 -0.0999 -0.6896
  899SOL    HW1 2832   4.360   0.643   2.209 -1.3931 -0.8617 -1.3852
  899SOL    HW2 2833   4.376   0.584   2.070  1.5731 -0.9133 -1.1000
  900SOL     OW 2834   4.867   2.322   2.972 -0.0731  0.2571 -0.1268
  900SOL    HW1 2835   4.792   2.286   3.019  0.0659  0.1967  0.0489
  900SOL    HW2 2836   4.843   2.313   2.879  0.2173 -0.8584 -0.1079
  901SOL     OW 2837   3.878   4.390   1.446  0.1250  0.3897  0.2446
  901SOL    HW1 2838   3.965   4.426   1.462 -0.1660  1.2876 -0.1152
  901SOL    HW2 2839   3.818   4.462   1.467 -0.6147 -0.6049  1.7073
  902SOL     OW 2840   3.233   3.702   2.658 -0.3075  0.0521  0.3055
  902SOL    HW1 2841   3.254   3.615   2.692 -0.2045  0.7908  2.2573
  902SOL    HW2 2842   3.140   3.714   2.679 -0.4485  0.2500 -0.3857
  903SOL     OW 2843   0.609   0.533   1.774  0.0765  0.1211 -0.1821
  903SOL    HW1 2844   0.526   0.576   1.755 -0.5282 -1.9329 -2.6955
  903SOL    HW2 2845   0.668   0.564   1.706  0.6649 -0.2426  0.1556
  904SOL     OW 2846   0.913   1.136   4.280 -0.3444 -0.2459 -0.4210
  904SOL    HW1 2847   0.819   1.135   4.264 -0.6413  0.1180  1.1335
  904SOL    HW2 2848   0.927   1.069   4.347  0.7240 -1.2924 -1.6452
  905SOL     OW 2849   3.340   3.726   4.172  0.7770 -0.0872 -0.0106
  905SOL    HW1 2850   3.397   3.801   4.189  0.2873  0.0331  1.1888
  905SOL    HW2 2851   3.372   3.657   4.231  0.4679 -0.4238 -0.2312
  906SOL     OW 2852   1.119   1.758   1.593 -0.2115 -0.4680 -0.2871
  906SOL    HW1 2853   1.130   1.686   1.531 -2.9056 -2.0176  0.8571
  906SOL    HW2 2854   1.025   1.776   1.593 -0.3421 -0.4701  3.1580
  907SOL     OW 2855   1.740   0.024   2.368 -0.1167 -0.1268 -0.5295
  907SOL    HW1 2856   1.699   0.091   2.422  0.6032 -0.4208  0.4118
  907SOL    HW2 2857   1.671  -0.005   2.308 -0.8973  0.2800  0.1608
  908SOL     OW 2858   1.507   3.503   3.708 -0.1666 -0.2526 -0.0380
  908SOL    HW1 2859   1.569   3.464   3.646  0.6270  1.1312 -0.1461
  908SOL    HW2 2860   1.479   3.429   3.762  1.2162 -1.0054 -0.2816
  909SOL     OW 2861   0.995   0.226   1.489 -0.4308 -0.9331  0.0735
  909SOL    HW1 2862   0.963   0.137   1.474 -0.5078 -0.4315 -3.7912
  909SOL    HW2 2863   1.073   0.233   1.434  1.0717  0.6929  2.2486
  910SOL     OW 2864   2.086   2.073   0.173 -0.6456  0.1314 -0.1710
  910SOL    HW1 2865   2.010   2.123   0.204  0.8728  2.3536  0.1919
  910SOL    HW2 2866   2.105   2.107   0.086  0.7811  0.6701  0.3164
  911SOL     OW 2867   2.653   0.452   3.754  0.6117 -0.1132  0.2399
  911SOL    HW1 2868   2.596   0.521   3.788  1.1476  0.6608 -0.3724
  911SOL    HW2 2869   2.667   0.477   3.662  2.5818  0.1749  0.5830
  912SOL     OW 2870   0.416   2.542   4.519  0.5458  0.9024 -0.3320
  912SOL    HW1 2871   0.479   2.591   4.570  1.5030 -0.8787  0.2937
  912SOL    HW2 2872   0.332   2.559   4.561  1.0572  0.9468  0.6924
  913SOL     OW 2873   1.723   4.622   2.013 -0.0355  0.0964 -0.0333
  913SOL    HW1 2874   1.812   4.588   2.024  1.0155  2.5124 -0.3743
  913SOL    HW2 2875   1.668   4.544   2.007  2.2328 -1.5223 -1.3529
  914SOL     OW 2876   2.029   2.441   1.311  0.1910 -0.1109 -0.0366
  914SOL    HW1 2877   2.110   2.452   1.361 -0.1689  1.4854  0.2436
  914SOL    HW2 2878   1.960   2.463   1.373 -0.3480  0.3533 -0.7898
  915SOL     OW 2879   1.763   2.659   0.972  0.4572  0.2271  0.5854
  915SOL    HW1 2880   1.709   2.689   0.899 -1.6505 -3.0249  0.6110
  915SOL    HW2 2881   1.732   2.710   1.047 -2.6497 -1.3853  0.5517
  916SOL     OW 2882   4.453   1.735   2.786  0.2986  0.1972 -0.3566
  916SOL    HW1 2883   4.405   1.741   2.703  0.7116  0.9899 -0.5468
  916SOL    HW2 2884   4.481   1.644   2.792  0.5028  0.1995 -1.2250
  917SOL     OW 2885   2.958   3.610   4.259 -0.0961  0.0967  0.4107
  917SOL    HW1 2886   2.874   3.635   4.222  0.2858 -0.8561 -1.1695
  917SOL    HW2 2887   2.937   3.571   4.344 -1.2366 -0.1692  0.0132
  918SOL     OW 2888   3.602   3.902   2.071  0.2918 -0.2552  0.2810
  918SOL    HW1 2889   3.676   3.858   2.029 -0.9746 -2.6536  0.3778
  918SOL    HW2 2890   3.591   3.856   2.154 -2.4232 -1.2936 -0.5482
  919SOL     OW 2891   3.367   2.626   2.651  0.0582  0.4172  0.2132
  919SOL    HW1 2892   3.299   2.570   2.612  1.8333 -1.3898 -0.4999
  919SOL    HW2 2893   3.412   2.664   2.575 -0.6026  2.2467  0.6920
  920SOL     OW 2894   2.946   2.348   0.467 -0.0608 -0.4114  0.0587
  920SOL    HW1 2895   2.922   2.398   0.389  0.0592 -0.0842  0.2320
  920SOL    HW2 2896   2.869   2.355   0.524 -0.1066 -0.5588  0.0139
  921SOL     OW 2897   4.013   3.171   4.503  0.2933  0.9831 -1.1274
  921SOL    HW1 2898   3.949   3.233   4.540  0.7405  0.3872  0.7418
  921SOL    HW2 2899   4.086   3.173   4.564  0.0143 -1.9208 -0.5803
  922SOL     OW 2900   4.245   3.868   2.884  0.5047  0.1809  0.5187
  922SOL    HW1 2901   4.305   3.908   2.946 -0.1604  2.6171 -0.2831
  922SOL    HW2 2902   4.161   3.865   2.930  0.3075  0.7734  0.2103
  923SOL     OW 2903   3.318   3.231   4.726 -0.2659  0.5628  0.2060
  923SOL    HW1 2904   3.287   3.318   4.700 -1.4997 -0.0049 -0.3444
  923SOL    HW2 2905   3.263   3.170   4.675  1.9979 -0.5493 -1.0697
  924SOL     OW 2906   1.463   2.612   1.854  0.0552 -0.0951  0.0872
  924SOL    HW1 2907   1.433   2.651   1.772 -2.7601 -0.1578  1.0012
  924SOL    HW2 2908   1.544   2.659   1.875  0.5151  0.3425 -2.3499
  925SOL     OW 2909   4.743   3.548   0.459 -0.2435  0.5410 -0.0255
  925SOL    HW1 2910   4.678   3.568   0.391  0.1615  1.0651 -0.2670
  925SOL    HW2 2911   4.773   3.633   0.489  0.2573  0.3051  0.1569
  926SOL     OW 2912   2.226   4.645   2.053  0.3245 -1.0671 -0.0735
  926SOL    HW1 2913   2.157   4.581   2.038 -0.4103 -0.5393  0.9470
  926SOL    HW2 2914   2.188   4.708   2.114  0.7928  0.7184 -1.5376
  927SOL     OW 2915   4.412   4.467   1.373 -0.1952  0.6399  0.3422
  927SOL    HW1 2916   4.437   4.444   1.462  0.5018 -0.9518 -0.2369
  927SOL    HW2 2917   4.323   4.433   1.364 -0.6095  1.5810  0.6810
  928SOL     OW 2918   1.205   0.164   3.712 -0.1102 -0.4150  0.8593
  928SOL    HW1 2919   1.137   0.171   3.645 -0.1288 -1.0799  0.8052
  928SOL    HW2 2920   1.260   0.092   3.683  1.1012  0.6232  0.4771
  929SOL     OW 2921   0.537   2.157   3.463  0.3386 -0.1476 -0.3303
  929SOL    HW1 2922   0.517   2.126   3.374  2.0182 -3.2321  0.2338
  929SOL    HW2 2923   0.452   2.165   3.505 -0.3493 -1.8473 -1.2921
  930SOL     OW 2924   0.585   3.422   3.355 -0.0246  0.1230  0.1941
  930SOL    HW1 2925   0.581   3.425   3.450  0.1610 -0.4072  0.2198
  930SOL    HW2 2926   0.608   3.511   3.329 -2.3747  0.8895  0.5120
  931SOL     OW 2927   4.001   1.206   3.008  0.2026  0.4050  0.0182
  931SOL    HW1 2928   4.005   1.300   2.991  2.0629  0.2055 -0.9018
  931SOL    HW2 2929   3.958   1.198   3.093  1.9845  2.2244  1.1483
  932SOL     OW 2930   4.890   3.721   4.525  0.1282 -0.3001 -0.2533
  932SOL    HW1 2931   4.796   3.714   4.544  0.3096  0.4170  1.0663
  932SOL    HW2 2932   4.924   3.633   4.538 -0.5499 -0.8492 -1.9902
  933SOL     OW 2933   2.846   2.572   3.169  0.1775 -0.1785 -0.3934
  933SOL    HW1 2934   2.916   2.518   3.133 -0.7988 -0.5647 -1.8051
  933SOL    HW2 2935   2.863   2.573   3.264  2.2201 -0.0269 -0.7121
  934SOL     OW 2936   0.989   4.130   1.019 -0.0114  0.0321 -0.9378
  934SOL    HW1 2937   0.955   4.077   0.947 -0.2067  1.3306 -1.8311
  934SOL    HW2 2938   1.056   4.185   0.979  1.4280 -0.7311  0.3151
  935SOL     OW 2939   3.887   3.055   1.464  0.4811  0.0292 -0.3439
  935SOL    HW1 2940   3.800   3.083   1.491  0.4708 -0.7684  0.4876
  935SOL    HW2 2941   3.944   3.073   1.539  1.0024  0.3851 -0.8164
  936SOL     OW 2942   3.115   1.871   2.412 -0.1729 -0.0467  0.1280
  936SOL    HW1 2943   3.147   1.823   2.488 -0.1764  0.6796  0.6002
  936SOL    HW2 2944   3.036   1.916   2.443  0.1017  0.6498 -0.1510
  937SOL     OW 2945   4.071   1.429   1.080  0.5835 -0.9525  0.6806
  937SOL    HW1 2946   4.164   1.450   1.090  0.3056 -0.0277  1.4608
  937SOL    HW2 2947   4.052   1.451   0.989  1.2518 -1.6848  0.3499
  938SOL     OW 2948   4.665   0.242   0.815 -0.0740 -0.4529 -0.3346
  938SOL    HW1 2949   4.607   0.224   0.742 -0.3862 -1.0426  0.0496
  938SOL    HW2 2950   4.724   0.311   0.783 -0.8803  0.0432 -0.7804
  939SOL     OW 2951   0.929   4.159   2.851  0.3003  0.0434 -0.0435
  939SOL    HW1 2952   0.863   4.093   2.830  1.9461 -1.5227 -0.4864
  939SOL    HW2 2953   1.004   4.136   2.797  1.5487  1.2311  1.1279
  940SOL     OW 2954   0.716   1.536   1.702  0.2603  0.0596 -0.1895
  940SOL    HW1 2955   0.693   1.562   1.791 -1.8654 -2.7845  0.2053
  940SOL    HW2 2956   0.794   1.481   1.712 -1.1753 -2.0119  0.2903
  941SOL     OW 2957   2.104   3.939   0.715  0.1652  0.1649 -0.1898
  941SOL    HW1 2958   2.074   4.010   0.771  0.9447  0.3720 -0.0098
  941SOL    HW2 2959   2.088   3.859   0.766 -0.5598  0.2234 -0.3240
  942SOL     OW 2960   2.723   2.995   0.663 -1.0822 -0.0871  0.6607
  942SOL    HW1 2961   2.633   3.011   0.638 -0.8517 -0.9401 -0.8720
  942SOL    HW2 2962   2.768   3.078   0.649 -1.5466  0.2340  1.0630
  943SOL     OW 2963   1.841   2.924   2.237  0.2086  0.1595 -0.0996
  943SOL    HW1 2964   1.850   2.838   2.196  1.6784  0.8654 -1.3688
  943SOL    HW2 2965   1.919   2.972   2.209  0.1497  1.4392  1.7529
  944SOL     OW 2966   0.952   1.313   1.201 -0.3243 -0.6894 -0.2752
  944SOL    HW1 2967   0.865   1.312   1.160 -0.1466 -0.1669 -0.6748
  944SOL    HW2 2968   0.943   1.258   1.278 -0.8235 -1.2258 -0.7059
  945SOL     OW 2969   4.781   2.887   2.285 -0.1562 -0.3346 -0.0205
  945SOL    HW1 2970   4.764   2.963   2.229 -1.1173 -0.1085  0.5450
  945SOL    HW2 2971   4.694   2.862   2.318  0.2926 -0.9484  0.7335
  946SOL     OW 2972   3.949   0.727   2.958 -0.5787 -0.1332  0.0996
  946SOL    HW1 2973   3.965   0.634   2.947  0.6903  0.0978 -0.1175
  946SOL    HW2 2974   3.967   0.765   2.872  0.5434  0.5124  0.5932
  947SOL     OW 2975   0.021   3.695   2.016 -0.6472 -0.0576 -0.4201
  947SOL    HW1 2976   0.068   3.771   1.982  0.6700 -1.4541 -1.8829
  947SOL    HW2 2977  -0.069   3.706   1.984 -1.3604  2.4549  2.1052
  948SOL     OW 2978   4.610   2.102   2.812 -0.3345 -0.7416 -0.1171
  948SOL    HW1 2979   4.666   2.047   2.866  2.6161 -0.2122 -2.3986
  948SOL    HW2 2980   4.583   2.174   2.870 -0.2412 -1.9862  1.5351
  949SOL     OW 2981   1.150   1.257   0.420 -0.1816 -0.3584  0.0732
  949SOL    HW1 2982   1.114   1.201   0.488 -0.8639 -1.1599 -0.9176
  949SOL    HW2 2983   1.243   1.237   0.419 -0.1057 -0.0956  0.9779
  950SOL     OW 2984   3.003   0.414   0.299 -0.1367 -0.9232  0.0494
  950SOL    HW1 2985   2.962   0.421   0.385 -0.3941 -0.7331 -0.0862
  950SOL    HW2 2986   2.980   0.496   0.255 -0.7439 -1.3764 -0.5083
  951SOL     OW 2987   4.337   0.540   3.259  0.4402 -0.2338  0.2278
  951SOL    HW1 2988   4.308   0.551   3.350 -0.4308  1.2559 -0.1927
  951SOL    HW2 2989   4.268   0.488   3.218  0.5274 -0.3825  0.2694
  952SOL     OW 2990   1.806   1.964   3.176 -0.7973 -0.6047 -0.1926
  952SOL    HW1 2991   1.751   1.927   3.107  0.1465 -1.4598 -0.4989
  952SOL    HW2 2992   1.892   1.924   3.164 -0.5012 -0.4768  1.2297
  953SOL     OW 2993   2.427   0.447   0.234 -0.3982 -0.0803  0.7049
  953SOL    HW1 2994   2.514   0.487   0.236 -0.3646 -0.0004 -0.9461
  953SOL    HW2 2995   2.369   0.516   0.203 -0.8775 -0.4295  0.8114
  954SOL     OW 2996   2.696   4.422   2.827  1.2454  0.2118  0.1819
  954SOL    HW1 2997   2.611   4.407   2.785  0.4230 -0.2183  1.9499
  954SOL    HW2 2998   2.736   4.491   2.773 -0.7515  1.3288  0.0309
  955SOL     OW 2999   0.758   4.042   2.354 -0.2819 -0.3887  0.2600
  955SOL    HW1 3000   0.742   4.054   2.448  0.0267  3.2342  0.0020
  955SOL    HW2 3001   0.693   4.098   2.311  0.6879 -0.6152 -1.5882
  956SOL     OW 3002   3.545   3.905   3.267  0.6238 -0.7859 -0.3732
  956SOL    HW1 3003   3.553   3.997   3.293  0.5097 -0.7728 -0.3814
  956SOL    HW2 3004   3.503   3.862   3.342 -0.3508 -0.6092 -0.7942
  957SOL     OW 3005   2.387   2.631   2.703 -0.1717 -0.1533 -0.0533
  957SOL    HW1 3006   2.411   2.687   2.777 -2.7607 -2.3609  2.7441
  957SOL    HW2 3007   2.456   2.564   2.700 -0.3899 -0.4463  0.9160
  958SOL     OW 3008   3.038   4.406   3.950  0.4427  0.0693  0.0236
  958SOL    HW1 3009   3.058   4.378   4.040  0.9042  1.3632  0.3523
  958SOL    HW2 3010   2.954   4.452   3.958 -0.7099 -1.7917 -0.6426
  959SOL     OW 3011   2.234   1.719   4.711  0.0531 -0.5065  0.8842
  959SOL    HW1 3012   2.183   1.690   4.635 -0.5142  1.0459  0.6380
  959SOL    HW2 3013   2.169   1.726   4.781 -0.0416  1.1658  0.6577
  960SOL     OW 3014   2.244   3.998   2.469  0.0879 -0.1476 -0.1427
  960SOL    HW1 3015   2.329   4.036   2.494 -0.1679  0.5810 -0.3388
  960SOL    HW2 3016   2.248   3.994   2.374 -0.0549 -0.2195 -0.1445
  961SOL     OW 3017   0.703   0.032   4.077 -0.0211 -0.0330 -0.0315
  961SOL    HW1 3018   0.774   0.097   4.076 -1.6336  2.1801  4.0278
  961SOL    HW2 3019   0.739  -0.042   4.127  0.5114 -0.4873 -1.0709
  962SOL     OW 3020   0.517   3.761   3.844  0.2784  0.0717 -0.1108
  962SOL    HW1 3021   0.537   3.701   3.772  1.1510 -1.9859  1.7129
  962SOL    HW2 3022   0.460   3.827   3.806 -0.5348 -1.7897 -2.3346
  963SOL     OW 3023   0.043   1.329   0.360 -0.1066 -0.3467  0.7720
  963SOL    HW1 3024   0.016   1.411   0.401  1.6039  1.5908 -1.6522
  963SOL    HW2 3025  -0.027   1.309   0.297 -0.6464 -0.9440  1.5390
  964SOL     OW 3026   4.537   1.684  -0.001  0.7309 -0.0972  0.0698
  964SOL    HW1 3027   4.543   1.607  -0.058  1.3397 -0.3889  0.5185
  964SOL    HW2 3028   4.483   1.654   0.073 -1.5450  0.7875 -1.1437
  965SOL     OW 3029   4.826   3.183   3.683 -0.5669 -0.2543 -0.4571
  965SOL    HW1 3030   4.852   3.245   3.750 -1.9150 -0.7579  0.5649
  965SOL    HW2 3031   4.803   3.237   3.607  0.5789  0.3313 -0.4125
  966SOL     OW 3032   2.201   2.784   2.565  0.1929  0.1980  0.3047
  966SOL    HW1 3033   2.273   2.741   2.611 -0.0248  0.8000  1.2273
  966SOL    HW2 3034   2.145   2.819   2.634 -0.9915 -0.2543 -0.4012
  967SOL     OW 3035   1.242   2.046   4.888 -0.2832 -0.4327 -0.4105
  967SOL    HW1 3036   1.288   2.090   4.817 -1.5540 -0.7875 -1.4838
  967SOL    HW2 3037   1.156   2.088   4.891 -0.7039 -1.2950  0.0509
  968SOL     OW 3038   1.881   0.685   2.071  0.1973  0.1910 -0.3597
  968SOL    HW1 3039   1.934   0.658   2.146 -0.5437  0.0148  0.1105
  968SOL    HW2 3040   1.841   0.604   2.040 -0.6337  0.4687 -0.0421
  969SOL     OW 3041   3.162   0.463   0.801  0.1912 -0.4837  0.3980
  969SOL    HW1 3042   3.152   0.387   0.745 -1.5395 -0.8968  1.2142
  969SOL    HW2 3043   3.162   0.538   0.741 -0.8060 -0.9619 -0.2119
  970SOL     OW 3044   4.543   0.196   1.584 -0.2872 -0.1136  0.0482
  970SOL    HW1 3045   4.608   0.213   1.516 -0.0325  1.2684  0.5893
  970SOL    HW2 3046   4.588   0.216   1.666 -0.7229 -1.3221  0.5979
  971SOL     OW 3047   4.159   0.561   3.912  0.4879  0.3688 -0.1641
  971SOL    HW1 3048   4.198   0.636   3.867  0.4981 -0.4709 -1.6060
  971SOL    HW2 3049   4.158   0.492   3.847 -4.3141  0.5401 -0.6425
  972SOL     OW 3050   4.820   0.955   1.845  0.5865  0.4023 -0.3338
  972SOL    HW1 3051   4.789   1.045   1.844  2.6498  1.1538 -0.0563
  972SOL    HW2 3052   4.749   0.906   1.887 -0.2687  1.9864  0.1473
  973SOL     OW 3053   0.675   3.558   1.842 -0.1776  0.6948  0.0148
  973SOL    HW1 3054   0.670   3.619   1.768  0.9292  2.1097  1.0555
  973SOL    HW2 3055   0.603   3.585   1.900 -1.1292 -0.4977 -0.5736
  974SOL     OW 3056   4.929   4.258   3.834 -0.1461 -0.1060 -0.1027
  974SOL    HW1 3057   4.912   4.211   3.916  2.8155 -1.4079 -0.1243
  974SOL    HW2 3058   4.897   4.347   3.851 -0.7242 -0.6637  2.0156
  975SOL     OW 3059   0.807   5.018   4.533 -0.5097 -0.6367  0.3297
  975SOL    HW1 3060   0.735   4.994   4.475  1.2976 -0.6780 -2.1043
  975SOL    HW2 3061   0.765   5.048   4.613 -3.1339 -2.4070 -0.2425
  976SOL     OW 3062   3.895   3.488   0.751  0.2615 -0.4039 -0.8829
  976SOL    HW1 3063   3.903   3.411   0.808 -1.9755 -0.2480 -0.2425
  976SOL    HW2 3064   3.939   3.462   0.670  2.9189 -0.8956  0.6018
  977SOL     OW 3065   0.603   3.600   4.051  0.0332 -0.0462  0.1696
  977SOL    HW1 3066   0.515   3.562   4.044  0.3329 -0.7852  0.2274
  977SOL    HW2 3067   0.602   3.675   3.992 -0.9026  0.4754  0.8096
  978SOL     OW 3068   0.536   1.857   3.087 -0.6091  0.0657 -0.6858
  978SOL    HW1 3069   0.585   1.779   3.115 -1.0492  0.6276  1.9879
  978SOL    HW2 3070   0.601   1.926   3.083 -0.9303  0.7300  2.5103
  979SOL     OW 3071   3.786   0.095   4.639  0.3904  0.1320 -0.3549
  979SOL    HW1 3072   3.769   0.069   4.549  0.7733 -0.0899 -0.3623
  979SOL    HW2 3073   3.726   0.168   4.655 -0.9334 -0.9302 -0.2367
  980SOL     OW 3074   0.049   1.014   3.754  0.1340  0.4544  1.0494
  980SOL    HW1 3075   0.135   0.986   3.785  0.1832  2.1803  2.6058
  980SOL    HW2 3076   0.067   1.090   3.698 -0.3622  0.7049  1.2222
  981SOL     OW 3077   0.115   1.811   4.159 -0.5929 -0.0095  0.0175
  981SOL    HW1 3078   0.033   1.850   4.131 -0.0460  0.5900 -0.7997
  981SOL    HW2 3079   0.116   1.725   4.118 -1.1278 -0.3061  0.6130
  982SOL     OW 3080   3.054   3.648   3.040  0.7884 -0.5790  0.1251
  982SOL    HW1 3081   2.970   3.610   3.066  0.9645 -2.3907 -1.7515
  982SOL    HW2 3082   3.119   3.583   3.068  1.1950 -1.1854 -2.0522
  983SOL     OW 3083   4.150   3.779   3.877  0.8378 -0.3456  0.3061
  983SOL    HW1 3084   4.140   3.872   3.901  1.0417 -0.2211 -0.0793
  983SOL    HW2 3085   4.089   3.768   3.803  3.4833  0.4551 -2.1841
  984SOL     OW 3086   4.599   2.356   3.989  0.5995  0.8674  0.0308
  984SOL    HW1 3087   4.596   2.270   4.032  2.3116  0.0626 -1.3418
  984SOL    HW2 3088   4.519   2.399   4.018  0.1073 -0.8481  1.4570
  985SOL     OW 3089   2.484   3.837   1.661  0.2777 -0.4110  0.4281
  985SOL    HW1 3090   2.457   3.927   1.638 -0.2023 -1.0016 -1.5670
  985SOL    HW2 3091   2.570   3.827   1.621 -0.0964 -1.1357 -0.2310
  986SOL     OW 3092   2.161   2.080   1.049  0.5890  0.2668  0.5045
  986SOL    HW1 3093   2.104   2.007   1.026 -0.0875  1.6203 -2.6041
  986SOL    HW2 3094   2.249   2.043   1.052  0.3106 -0.6319 -1.4879
  987SOL     OW 3095   1.822   4.893   2.058 -0.3919 -0.1786  0.2998
  987SOL    HW1 3096   1.876   4.897   1.979  0.4902  0.7485  0.9355
  987SOL    HW2 3097   1.751   4.833   2.034  1.1452 -1.8417 -0.4110
  988SOL     OW 3098   1.169   1.113   1.829 -0.1969 -0.7980 -0.2878
  988SOL    HW1 3099   1.195   1.024   1.851  2.9206  0.0472 -0.0469
  988SOL    HW2 3100   1.117   1.142   1.904  0.2379 -1.8645  0.4582
  989SOL     OW 3101   2.105   4.425   0.466  0.2931 -0.0190  0.0120
  989SOL    HW1 3102   2.090   4.492   0.398 -0.6116 -0.5639 -0.3396
  989SOL    HW2 3103   2.190   4.387   0.443  1.1028  1.3887  0.5522
  990SOL     OW 3104   0.749   1.924   4.121 -0.5286  0.0794 -0.1622
  990SOL    HW1 3105   0.741   1.966   4.035  0.5245  0.5499 -0.0496
  990SOL    HW2 3106   0.791   1.990   4.176  3.4926 -1.8079 -0.6045
  991SOL     OW 3107   3.205   3.763   0.264 -0.4044  0.3292  0.1574
  991SOL    HW1 3108   3.132   3.705   0.240 -1.0716  1.1837  0.0501
  991SOL    HW2 3109   3.225   3.739   0.354  0.6409 -1.3927 -0.4777
  992SOL     OW 3110   3.242   3.199   1.382 -0.4423 -0.6789 -0.1654
  992SOL    HW1 3111   3.198   3.135   1.327  1.5750  0.8598 -3.9348
  992SOL    HW2 3112   3.187   3.278   1.375 -0.5034 -0.6473  0.6074
  993SOL     OW 3113   3.660   2.085   4.208 -0.3352 -0.4063  0.5922
  993SOL    HW1 3114   3.600   2.099   4.280 -2.0920 -3.4546 -0.1031
  993SOL    HW2 3115   3.746   2.078   4.250 -0.8961  0.6182  2.0025
  994SOL     OW 3116   2.125   0.928   1.608  0.1712  0.6216 -0.3068
  994SOL    HW1 3117   2.144   0.996   1.672  0.1725 -0.2134  0.6053
  994SOL    HW2 3118   2.149   0.846   1.652 -3.0216 -0.3035 -0.0360
  995SOL     OW 3119   4.667   0.862   2.616  0.3864  0.7706  0.4637
  995SOL    HW1 3120   4.738   0.804   2.587 -0.8588 -1.1685  1.1036
  995SOL    HW2 3121   4.644   0.829   2.703 -3.0219 -0.4081 -0.7447
  996SOL     OW 3122   0.721   1.690   3.593  0.2219 -0.2759 -0.4556
  996SOL    HW1 3123   0.734   1.733   3.509  0.5443  0.2676 -0.1377
  996SOL    HW2 3124   0.682   1.757   3.649 -0.0234 -0.6408 -0.1814
  997SOL     OW 3125   4.082   2.339   2.988  0.0929  0.2441  0.1375
  997SOL    HW1 3126   4.157   2.288   3.020  0.5126  1.1188  0.5855
  997SOL    HW2 3127   4.096   2.345   2.894 -0.6976 -1.6280 -0.1363
  998SOL     OW 3128   1.163   2.675   4.756 -0.0882 -0.1305 -0.5717
  998SOL    HW1 3129   1.069   2.655   4.751 -0.5736  0.3926  3.4153
  998SOL    HW2 3130   1.204   2.593   4.782  0.4704 -0.1178 -1.3723
  999SOL     OW 3131   3.442   1.514   4.078 -0.1288 -0.5716 -0.2628
  999SOL    HW1 3132   3.434   1.605   4.049 -0.6819 -1.2070 -2.2688
  999SOL    HW2 3133   3.387   1.508   4.156  1.9860  1.4027  1.5423
 1000SOL     OW 3134   1.098   3.790   3.159 -0.0136  0.4201 -0.2424
 1000SOL    HW1 3135   1.153   3.740   3.098 -0.0442  0.7833 -0.5678
 1000SOL    HW2 3136   1.030   3.829   3.104  0.5518  1.5960 -0.1314
 1001SOL     OW 3137   1.888   1.330   4.313 -0.0137  0.5263 -0.6027
 1001SOL    HW1 3138   1.840   1.399   4.268 -0.3931 -0.3187 -1.5238
 1001SOL    HW2 3139   1.829   1.300   4.381  0.0978  0.9963 -0.2895
 1002SOL     OW 3140   0.696   0.372   4.101  0.3502  0.6685  0.2011
 1002SOL    HW1 3141   0.780   0.413   4.081  0.5923 -0.3912 -1.0612
 1002SOL    HW2 3142   0.659   0.351   4.016 -0.4769 -0.3098  0.7831
 1003SOL     OW 3143   1.304   0.475   2.278 -0.5749  0.0751 -0.2040
 1003SOL    HW1 3144   1.315   0.567   2.301 -1.6403  0.1277  0.1220
 1003SOL    HW2 3145   1.340   0.468   2.189  1.9276  0.2358  0.7144
 1004SOL     OW 3146   3.559   0.851   4.486 -0.1867  1.0094  0.0586
 1004SOL    HW1 3147   3.632   0.827   4.543  0.9933  1.2465 -1.3007
 1004SOL    HW2 3148   3.595   0.917   4.427 -1.1694  0.2894 -1.4128
 1005SOL     OW 3149   0.520   0.741   0.705  0.4056 -0.2995 -0.5623
 1005SOL    HW1 3150   0.431   0.711   0.685 -0.3774 -0.1109  2.2869
 1005SOL    HW2 3151   0.521   0.832   0.678  0.1617 -0.6268 -1.7440
 1006SOL     OW 3152   4.861   0.278   3.891  0.3413 -0.0431  0.0406
 1006SOL    HW1 3153   4.882   0.347   3.829  0.7622  0.1737  0.4176
 1006SOL    HW2 3154   4.886   0.313   3.976 -0.9992 -0.0155  0.4455
 1007SOL     OW 3155   2.152   3.720   4.103  0.1140 -0.2442 -1.1359
 1007SOL    HW1 3156   2.149   3.815   4.116  3.2239 -0.0002 -1.3142
 1007SOL    HW2 3157   2.198   3.687   4.181 -0.7693 -1.6159 -1.1632
 1008SOL     OW 3158   4.579   1.966   3.095  0.2388  0.7629 -0.2807
 1008SOL    HW1 3159   4.634   1.888   3.093  0.6646  0.9488  1.6092
 1008SOL    HW2 3160   4.491   1.934   3.073  0.9095  0.3235 -2.4821
 1009SOL     OW 3161   2.413   1.996   1.993 -0.1980  0.5869  0.1198
 1009SOL    HW1 3162   2.366   2.034   2.068  2.1939  0.4308  1.8145
 1009SOL    HW2 3163   2.504   1.988   2.023  0.4028 -1.7479 -1.9761
 1010SOL     OW 3164   2.710   3.166   0.180 -0.1773 -0.4358  0.1078
 1010SOL    HW1 3165   2.804   3.179   0.172 -0.0607  0.4676  2.2034
 1010SOL    HW2 3166   2.671   3.247   0.148 -0.1596 -0.2226  0.6222
 1011SOL     OW 3167   3.504   4.483   2.315  0.2736 -0.7547  0.6119
 1011SOL    HW1 3168   3.593   4.471   2.348 -0.0720  0.4706  2.1432
 1011SOL    HW2 3169   3.476   4.396   2.288  1.3128 -1.4978  1.8069
 1012SOL     OW 3170   2.113   1.041   2.088 -0.4219  0.0942  0.1947
 1012SOL    HW1 3171   2.158   0.957   2.097 -0.5211 -0.1011 -1.0036
 1012SOL    HW2 3172   2.141   1.091   2.165  1.7558 -0.0697 -0.4185
 1013SOL     OW 3173   4.946   3.242   2.336 -0.5774 -0.0169 -0.4364
 1013SOL    HW1 3174   4.918   3.194   2.414 -0.2187 -1.4793 -1.1719
 1013SOL    HW2 3175   5.028   3.201   2.310 -0.1919  1.0873 -1.0472
 1014SOL     OW 3176   5.061   0.114   4.096 -0.3140 -0.0244  0.1508
 1014SOL    HW1 3177   5.037   0.059   4.171 -3.6745 -0.5439 -1.1605
 1014SOL    HW2 3178   4.985   0.170   4.081  1.2301  1.8183 -1.4001
 1015SOL     OW 3179   1.617   1.506   4.882 -0.1251  0.3298  0.8101
 1015SOL    HW1 3180   1.622   1.563   4.958 -1.8578 -1.3554  2.3221
 1015SOL    HW2 3181   1.654   1.423   4.912 -0.8843 -0.3854 -0.1387
 1016SOL     OW 3182   3.399   4.243   1.004  0.4254  1.0655  0.5067
 1016SOL    HW1 3183   3.462   4.298   0.959 -1.1289  0.9875 -1.9443
 1016SOL    HW2 3184   3.434   4.234   1.093  3.7544  1.0960 -0.6616
 1017SOL     OW 3185   4.308   0.387   0.605  0.3039  0.5787  0.2752
 1017SOL    HW1 3186   4.365   0.462   0.588  0.7756 -0.0491 -1.1056
 1017SOL    HW2 3187   4.238   0.422   0.659  0.7934  1.8978  0.1022
 1018SOL     OW 3188   3.179   4.558   3.432 -0.1396  0.2473 -0.4999
 1018SOL    HW1 3189   3.098   4.595   3.466 -0.3134 -1.3212  0.9449
 1018SOL    HW2 3190   3.248   4.616   3.465 -0.6191  1.3195 -1.3443
 1019SOL     OW 3191   1.301   0.363   0.929 -0.1793 -0.0646 -0.6474
 1019SOL    HW1 3192   1.385   0.334   0.964  0.4375 -0.5718 -2.4530
 1019SOL    HW2 3193   1.287   0.449   0.969 -0.2470 -1.1524  1.9018
 1020SOL     OW 3194   2.893   1.963   1.225  0.0105  0.4576 -0.2764
 1020SOL    HW1 3195   2.973   1.913   1.210 -0.5867 -0.7123  0.2752
 1020SOL    HW2 3196   2.857   1.927   1.307 -1.1952  0.7796 -0.6413
 1021SOL     OW 3197   0.878   0.264   3.731  0.0556  0.0133 -0.3657
 1021SOL    HW1 3198   0.793   0.235   3.763  0.8710 -3.9218 -1.2289
 1021SOL    HW2 3199   0.870   0.262   3.635  0.8660  0.5523 -0.4587
 1022SOL     OW 3200   2.246   2.755   3.991  0.8374 -0.0418  0.2661
 1022SOL    HW1 3201   2.250   2.751   3.895 -0.1191 -0.7953  0.2378
 1022SOL    HW2 3202   2.335   2.775   4.018  0.4706  4.0929 -0.9153
 1023SOL     OW 3203   4.919   3.320   1.546  0.2097  0.2372  0.2316
 1023SOL    HW1 3204   4.853   3.306   1.614  0.0858  0.6250  0.1964
 1023SOL    HW2 3205   4.908   3.245   1.487 -0.4322  0.4692  0.0459
 1024SOL     OW 3206   3.704   4.989   2.898 -0.3737  0.2260 -0.2187
 1024SOL    HW1 3207   3.740   5.075   2.917 -1.7622  0.4464  1.7353
 1024SOL    HW2 3208   3.610   5.004   2.887 -0.2602 -0.6257 -3.0283
 1025SOL     OW 3209   1.228   0.048   4.115  0.4687  0.5499  0.1548
 1025SOL    HW1 3210   1.269  -0.036   4.097  1.2643  0.5443  1.7848
 1025SOL    HW2 3211   1.230   0.094   4.032  1.7741 -0.3235 -0.3259
 1026SOL     OW 3212   2.825   3.878   4.355  0.1760 -0.0218  1.0239
 1026SOL    HW1 3213   2.920   3.888   4.359  0.2712 -0.2736 -0.1207
 1026SOL    HW2 3214   2.794   3.956   4.310 -0.1441 -0.0020  1.2763
 1027SOL     OW 3215   2.132   3.333   3.226 -0.5490 -0.0598 -0.7948
 1027SOL    HW1 3216   2.122   3.263   3.290  2.2763 -0.3849 -0.5435
 1027SOL    HW2 3217   2.105   3.412   3.271 -0.8857 -0.6089 -0.0268
 1028SOL     OW 3218   3.979   1.157   1.058  0.2226 -0.1271 -0.5443
 1028SOL    HW1 3219   3.925   1.138   0.981  1.2312 -0.9022 -1.0736
 1028SOL    HW2 3220   4.023   1.239   1.036 -0.3654  0.2682 -0.2951
 1029SOL     OW 3221   0.604   3.733   4.536 -0.2621  0.3307 -0.0700
 1029SOL    HW1 3222   0.529   3.673   4.535 -0.5294  0.6696 -0.3234
 1029SOL    HW2 3223   0.653   3.711   4.457  1.1855 -1.4810  1.2091
 1030SOL     OW 3224   2.933   0.399   3.874  0.3156 -0.4560  0.4149
 1030SOL    HW1 3225   2.931   0.479   3.927  1.8989 -1.3820  1.9688
 1030SOL    HW2 3226   2.853   0.403   3.822 -0.5319  1.2687  1.7359
 1031SOL     OW 3227   0.601   0.611   4.437 -0.6124 -0.0657 -0.3025
 1031SOL    HW1 3228   0.620   0.519   4.455  2.5230  0.5714  0.2518
 1031SOL    HW2 3229   0.581   0.648   4.522  2.5738  0.5647  0.2938
 1032SOL     OW 3230   4.693   3.978   0.766 -0.3550  0.6407  0.4186
 1032SOL    HW1 3231   4.615   3.930   0.737 -0.9702  0.9058  1.5936
 1032SOL    HW2 3232   4.750   3.912   0.803 -0.1080  0.4797 -0.2307
 1033SOL     OW 3233   0.380   2.501   1.735 -0.3502  0.6366  0.1639
 1033SOL    HW1 3234   0.438   2.432   1.702 -0.3625 -0.4792  2.3146
 1033SOL    HW2 3235   0.439   2.573   1.760  0.0172  0.0430  1.0655
 1034SOL     OW 3236   0.280   2.586   2.311 -0.3305 -0.4566  0.2277
 1034SOL    HW1 3237   0.347   2.527   2.277  1.0435  1.8262 -1.3343
 1034SOL    HW2 3238   0.202   2.565   2.260  1.0309  1.1543 -2.8253
 1035SOL     OW 3239   4.092   1.620   4.941 -0.7574  0.0469  0.2608
 1035SOL    HW1 3240   4.057   1.709   4.934  0.3630  0.3665 -2.1142
 1035SOL    HW2 3241   4.165   1.617   4.879 -1.6831 -2.9534 -0.8702
 1036SOL     OW 3242   2.404   2.315   4.712 -0.5214  0.2083  0.2511
 1036SOL    HW1 3243   2.464   2.367   4.764  1.4971  0.6111 -2.3081
 1036SOL    HW2 3244   2.395   2.362   4.629 -3.0352 -0.7357 -0.1234
 1037SOL     OW 3245   1.683   4.450   2.328  0.5134  0.2058  0.3171
 1037SOL    HW1 3246   1.656   4.515   2.393  0.7518  1.0378 -0.4022
 1037SOL    HW2 3247   1.723   4.501   2.258 -0.6519 -0.5865 -0.9670
 1038SOL     OW 3248   0.355   2.712   0.284 -0.4443 -0.3336 -0.6600
 1038SOL    HW1 3249   0.418   2.673   0.344  0.7605 -1.3932 -2.5142
 1038SOL    HW2 3250   0.398   2.709   0.199 -1.5060  2.4308 -1.4011
 1039SOL     OW 3251   2.065   1.590   0.197 -0.2606  0.2271 -0.5311
 1039SOL    HW1 3252   2.068   1.507   0.148 -0.7829 -0.4192  0.4971
 1039SOL    HW2 3253   2.134   1.643   0.157  1.3484 -1.3683 -0.0561
 1040SOL     OW 3254   3.844   3.255   4.913  0.4137 -0.3357  0.1721
 1040SOL    HW1 3255   3.748   3.249   4.909 -0.1818  3.8744  2.2985
 1040SOL    HW2 3256   3.872   3.266   4.822 -1.3538  0.0230 -0.3627
 1041SOL     OW 3257   3.775   1.148   2.405 -0.6100  0.5552 -0.0207
 1041SOL    HW1 3258   3.821   1.073   2.445  2.4863  2.3232  0.0852
 1041SOL    HW2 3259   3.683   1.121   2.403  0.0929 -2.5219  1.6148
 1042SOL     OW 3260   2.781   3.946   3.397 -0.1497 -0.4339  0.2924
 1042SOL    HW1 3261   2.857   3.899   3.363 -2.0837 -2.1936 -1.9374
 1042SOL    HW2 3262   2.746   3.992   3.321 -1.4296  0.1779  1.2203
 1043SOL     OW 3263   4.768   2.559   0.762  0.3060 -0.4616  0.3977
 1043SOL    HW1 3264   4.814   2.475   0.758  1.3731 -0.4691  5.7593
 1043SOL    HW2 3265   4.836   2.622   0.786 -1.0297  1.3913 -0.4360
 1044SOL     OW 3266   4.465   2.127   3.582 -0.0565 -0.6088  0.6152
 1044SOL    HW1 3267   4.399   2.164   3.524  0.7278  3.7506  2.0980
 1044SOL    HW2 3268   4.415   2.088   3.654 -1.0634  0.8092  0.7221
 1045SOL     OW 3269   3.862   3.060   0.060  0.1377 -0.1949 -0.1601
 1045SOL    HW1 3270   3.947   3.022   0.040 -0.1275 -0.8956  0.0103
 1045SOL    HW2 3271   3.849   3.128  -0.006  0.8310 -0.0779 -0.1797
 1046SOL     OW 3272   3.864   1.847   1.182  0.0402  0.2917  0.1085
 1046SOL    HW1 3273   3.878   1.824   1.090 -1.3275  1.6445 -0.4666
 1046SOL    HW2 3274   3.836   1.765   1.223  2.9809 -0.9442 -0.0845
 1047SOL     OW 3275   0.568   1.058   2.640 -0.5249 -0.1982  0.2453
 1047SOL    HW1 3276   0.533   1.137   2.600 -0.2916  0.8818  2.0924
 1047SOL    HW2 3277   0.617   1.089   2.716  1.0819 -1.9796  0.0064
 1048SOL     OW 3278   4.161   3.028   3.222 -0.2248 -0.5624  0.1809
 1048SOL    HW1 3279   4.188   2.998   3.308  1.5389 -2.2600 -0.8728
 1048SOL    HW2 3280   4.241   3.022   3.169 -1.5222 -0.7341 -1.8590
 1049SOL     OW 3281   1.265   3.255   3.600  0.1113  0.1237  0.0688
 1049SOL    HW1 3282   1.183   3.216   3.571  0.6530 -2.0139  1.1699
 1049SOL    HW2 3283   1.243   3.302   3.680 -0.4086  1.4669 -0.8389
 1050SOL     OW 3284   1.738   1.352   0.762  0.2251 -0.1348 -0.0859
 1050SOL    HW1 3285   1.800   1.391   0.825 -1.1606  0.2563  1.0997
 1050SOL    HW2 3286   1.716   1.267   0.799 -0.4890  0.0345 -0.1015
 1051SOL     OW 3287   4.738   4.123   4.486 -0.0802 -0.0691  0.5649
 1051SOL    HW1 3288   4.745   4.209   4.527 -1.2875 -0.2675  1.2408
 1051SOL    HW2 3289   4.829   4.095   4.473  0.4132  2.2021 -1.7014
 1052SOL     OW 3290   3.797   4.137   4.930  0.0966  0.1522 -0.1667
 1052SOL    HW1 3291   3.738   4.062   4.936  0.0413  0.2122  0.0604
 1052SOL    HW2 3292   3.792   4.178   5.016  1.7326 -0.7845  0.4374
 1053SOL     OW 3293   0.569   4.017   4.719  0.0626  0.6324  0.3672
 1053SOL    HW1 3294   0.567   3.923   4.704 -0.6495  0.5756  0.7593
 1053SOL    HW2 3295   0.614   4.028   4.803 -1.4104  0.4921  1.2187
 1054SOL     OW 3296   2.529   2.513   0.223 -0.3802  0.0372  0.0222
 1054SOL    HW1 3297   2.497   2.436   0.176  2.2697 -0.2263 -1.5476
 1054SOL    HW2 3298   2.537   2.581   0.156  0.8022  0.5408  0.6434
 1055SOL     OW 3299   4.904   3.833   0.611  0.1990  0.4981 -0.4736
 1055SOL    HW1 3300   4.935   3.923   0.618  0.1014  0.4834  0.2638
 1055SOL    HW2 3301   4.882   3.822   0.518  0.3280  1.1889 -0.5935
 1056SOL     OW 3302   2.806   0.845   2.218  0.1064  0.0006 -0.0927
 1056SOL    HW1 3303   2.844   0.764   2.186 -1.6082 -1.0244  0.3587
 1056SOL    HW2 3304   2.730   0.860   2.162 -1.5169 -0.5141  1.8489
 1057SOL     OW 3305   2.385   1.837   1.353 -0.1874  0.2337  0.4567
 1057SOL    HW1 3306   2.441   1.781   1.298  0.6887  2.0731 -0.6224
 1057SOL    HW2 3307   2.350   1.778   1.420 -0.0013 -1.7661 -1.1193
 1058SOL     OW 3308   0.128   3.733   1.687  0.1941  0.1313  0.5243
 1058SOL    HW1 3309   0.051   3.788   1.703  0.1608 -0.2812  1.9093
 1058SOL    HW2 3310   0.181   3.783   1.625  0.1366  1.6874  1.6759
 1059SOL     OW 3311   2.555   2.050   0.416 -0.9953 -0.6860  0.0646
 1059SOL    HW1 3312   2.585   2.120   0.474  0.7156  0.3774 -1.9688
 1059SOL    HW2 3313   2.460   2.057   0.418 -0.8876  0.9960  0.7148
 1060SOL     OW 3314   3.020   4.473   1.444 -0.2453 -0.0719  0.1226
 1060SOL    HW1 3315   2.987   4.558   1.415  3.0812  1.3568  0.0330
 1060SOL    HW2 3316   2.994   4.468   1.536 -0.5248  1.0169  0.1197
 1061SOL     OW 3317   3.258   1.612   4.283  0.8948 -0.1446  0.3693
 1061SOL    HW1 3318   3.249   1.532   4.334  0.1818 -0.3425 -0.0459
 1061SOL    HW2 3319   3.171   1.627   4.246  0.9139  1.0195  0.7235
 1062SOL     OW 3320   4.278   1.061   2.145 -0.0818  0.2473  0.4469
 1062SOL    HW1 3321   4.366   1.026   2.163 -0.3005  0.1183  1.2958
 1062SOL    HW2 3322   4.231   0.988   2.104  0.4407  0.5647 -0.7653
 1063SOL     OW 3323   3.602   3.456   1.052 -0.3370 -0.2056 -0.4436
 1063SOL    HW1 3324   3.523   3.471   1.000 -0.7003 -0.8504 -0.0862
 1063SOL    HW2 3325   3.586   3.505   1.133  0.0725  0.4985 -0.7798
 1064SOL     OW 3326   4.271   0.639   1.200  0.4696 -0.1953  0.1371
 1064SOL    HW1 3327   4.265   0.711   1.137 -1.4345  0.4820  1.0194
 1064SOL    HW2 3328   4.362   0.640   1.230  1.1144  0.1900 -1.7199
 1065SOL     OW 3329   3.369   2.672   4.510 -0.6169  0.6367 -0.6180
 1065SOL    HW1 3330   3.274   2.669   4.521 -0.5728 -1.4344 -0.5313
 1065SOL    HW2 3331   3.404   2.639   4.593  0.0990 -1.0063 -1.5354
 1066SOL     OW 3332   3.943   1.387   3.259  0.3041 -0.0812  0.4339
 1066SOL    HW1 3333   3.894   1.423   3.185  0.7205  2.8660  1.4699
 1066SOL    HW2 3334   4.025   1.436   3.261  3.1814 -4.2656 -0.7183
 1067SOL     OW 3335   1.520   0.187   2.857  0.6150  0.0552  0.6935
 1067SOL    HW1 3336   1.601   0.232   2.837  0.7170  0.4407  1.8981
 1067SOL    HW2 3337   1.533   0.098   2.823  1.3574  0.2342  0.4891
 1068SOL     OW 3338   1.284   3.496   1.591  0.4732  0.2107 -0.0256
 1068SOL    HW1 3339   1.380   3.497   1.586  0.5158  1.1524  0.7008
 1068SOL    HW2 3340   1.257   3.434   1.524  1.6666 -1.3238  0.8398
 1069SOL     OW 3341   4.517   2.821   4.462  0.2527  0.3020 -0.1081
 1069SOL    HW1 3342   4.475   2.764   4.526 -0.3457  1.4597  0.5667
 1069SOL    HW2 3343   4.588   2.768   4.425 -0.1382 -0.7847  0.6491
 1070SOL     OW 3344   3.456   2.003   4.056 -0.0674 -0.3309 -0.6415
 1070SOL    HW1 3345   3.527   2.005   4.121 -0.2909 -0.5816 -0.3869
 1070SOL    HW2 3346   3.459   1.913   4.021 -2.0655 -1.3002  1.4022
 1071SOL     OW 3347   3.316   4.521   1.576  0.2149  0.5378 -0.0358
 1071SOL    HW1 3348   3.275   4.542   1.660 -1.1473 -0.6303 -0.3690
 1071SOL    HW2 3349   3.409   4.515   1.596  0.1585  2.2914  0.9585
 1072SOL     OW 3350   4.103   4.891   3.199  0.0092 -0.0506 -0.6179
 1072SOL    HW1 3351   4.081   4.798   3.201  1.7892 -0.5059  1.3846
 1072SOL    HW2 3352   4.189   4.897   3.242  0.0880  2.4917 -0.9289
 1073SOL     OW 3353   0.986   4.211   2.466  0.4295  0.0230 -0.1868
 1073SOL    HW1 3354   1.028   4.198   2.551  0.2215  1.8536  0.2340
 1073SOL    HW2 3355   0.935   4.131   2.452 -1.7260  0.7296  2.7398
 1074SOL     OW 3356   3.900   2.586   3.767  0.0591 -0.4805  0.1190
 1074SOL    HW1 3357   3.913   2.529   3.691 -0.1611  0.3828 -0.5832
 1074SOL    HW2 3358   3.984   2.630   3.779 -0.5630  1.1937 -1.1713
 1075SOL     OW 3359   2.581   4.662   0.422 -0.1970  0.6250  0.1903
 1075SOL    HW1 3360   2.531   4.702   0.493 -0.3960  0.9765 -0.1424
 1075SOL    HW2 3361   2.670   4.654   0.456 -0.4000  0.3360  0.6544
 1076SOL     OW 3362   3.139   0.576   4.211  0.1790 -0.4382  0.0354
 1076SOL    HW1 3363   3.073   0.592   4.278 -1.8032  0.2265 -1.9772
 1076SOL    HW2 3364   3.201   0.649   4.222 -0.3006 -0.1355  0.8915
 1077SOL     OW 3365   4.529   2.864   3.426  0.3758 -0.4656  0.4130
 1077SOL    HW1 3366   4.573   2.803   3.484 -0.9164 -1.3723  0.4818
 1077SOL    HW2 3367   4.466   2.810   3.378 -0.6021  0.7739  0.2669
 1078SOL     OW 3368   3.563   0.665   4.194 -0.1479  0.2280 -0.1708
 1078SOL    HW1 3369   3.645   0.677   4.241  0.1950  0.7338 -0.8755
 1078SOL    HW2 3370   3.512   0.605   4.249  0.3748  0.5244  0.6563
 1079SOL     OW 3371   4.421   1.219   0.097  0.0518  0.4281  0.0114
 1079SOL    HW1 3372   4.372   1.166   0.034 -2.5950  1.0547  1.3752
 1079SOL    HW2 3373   4.494   1.164   0.123 -1.1647 -1.5377 -0.5068
 1080SOL     OW 3374   4.680   1.334   1.798 -0.0019  0.0256  0.3992
 1080SOL    HW1 3375   4.639   1.418   1.776  1.6777  0.3545 -1.7750
 1080SOL    HW2 3376   4.612   1.285   1.843 -1.6276  1.8562  0.0454
 1081SOL     OW 3377   5.042   4.890   0.866 -0.0475 -0.7921 -0.7215
 1081SOL    HW1 3378   5.052   4.926   0.954  0.8177  1.2342 -1.5807
 1081SOL    HW2 3379   4.956   4.847   0.867 -0.8943  0.8296  0.5846
 1082SOL     OW 3380   3.340   0.023   0.352  0.5457 -0.3634 -0.2577
 1082SOL    HW1 3381   3.390   0.079   0.292  1.2549 -1.4293 -0.6904
 1082SOL    HW2 3382   3.267   0.078   0.380  0.9447  0.6127 -1.0469
 1083SOL     OW 3383   2.807  -0.015   4.576 -0.1685 -0.0913 -0.0493
 1083SOL    HW1 3384   2.726   0.015   4.535 -0.1143  0.2543  0.0900
 1083SOL    HW2 3385   2.877   0.030   4.528 -0.1305  0.8300  0.8111
 1084SOL     OW 3386   1.553   2.270   3.200  1.2138 -0.3142 -0.1429
 1084SOL    HW1 3387   1.584   2.185   3.168  2.5222  0.4862 -1.1048
 1084SOL    HW2 3388   1.479   2.292   3.143 -0.2554 -1.5387  1.1928
 1085SOL     OW 3389   1.663   1.216   4.508  0.0725 -0.3931  0.5104
 1085SOL    HW1 3390   1.621   1.298   4.482 -1.1907 -1.0830  0.3274
 1085SOL    HW2 3391   1.691   1.231   4.599  0.6407  0.5313  0.1945
 1086SOL     OW 3392   0.219   0.799   3.405 -0.2326 -0.5460 -0.2440
 1086SOL    HW1 3393   0.207   0.709   3.376 -1.2275 -0.3530 -0.4423
 1086SOL    HW2 3394   0.137   0.843   3.385 -0.7662 -0.2411  2.2582
 1087SOL     OW 3395   0.906   2.428   2.980  0.1468  0.3272 -0.2440
 1087SOL    HW1 3396   0.824   2.473   2.998  1.0261  2.0205 -0.2572
 1087SOL    HW2 3397   0.974   2.493   3.001  1.5339 -1.4173  0.9990
 1088SOL     OW 3398   0.780   1.885   2.528  0.2262  0.1536  0.7659
 1088SOL    HW1 3399   0.818   1.945   2.463 -0.2699 -1.7274 -1.4106
 1088SOL    HW2 3400   0.687   1.907   2.529  0.0127 -0.6286 -0.1675
 1089SOL     OW 3401   0.240   0.283   0.682 -0.4207 -0.7124 -0.7426
 1089SOL    HW1 3402   0.321   0.333   0.670 -1.1319  1.2065  1.5721
 1089SOL    HW2 3403   0.175   0.332   0.632 -0.3751 -1.6973 -1.7974
 1090SOL     OW 3404   3.483   4.211   2.170 -0.3406  0.5532 -0.6398
 1090SOL    HW1 3405   3.431   4.160   2.233 -0.4197  1.2206 -0.1469
 1090SOL    HW2 3406   3.557   4.155   2.149 -3.2379 -2.3746 -4.7012
 1091SOL     OW 3407   4.784   2.964   0.956 -0.0809  0.2471  0.2331
 1091SOL    HW1 3408   4.794   3.014   0.875 -0.7905  0.1123  0.0553
 1091SOL    HW2 3409   4.866   2.977   1.002  1.4246 -1.6938 -1.6470
 1092SOL     OW 3410   1.574   1.091   1.308 -0.3467  0.2279  0.7165
 1092SOL    HW1 3411   1.626   1.163   1.274 -0.0334  0.5457  1.8230
 1092SOL    HW2 3412   1.492   1.131   1.336 -0.4973  0.0184  0.5793
 1093SOL     OW 3413   2.830   4.282   2.477 -0.0816 -0.2040 -0.0894
 1093SOL    HW1 3414   2.779   4.360   2.454 -1.0506 -0.5011  0.9659
 1093SOL    HW2 3415   2.919   4.315   2.490 -0.7966  1.0861  2.0296
 1094SOL     OW 3416   0.670   1.455   3.296  0.0008  0.1075  0.3481
 1094SOL    HW1 3417   0.580   1.487   3.299 -0.1809 -0.4520  1.2318
 1094SOL    HW2 3418   0.673   1.385   3.361  0.6893 -0.8739 -0.6926
 1095SOL     OW 3419   0.465   0.755   4.658  0.1527  0.2253 -0.2226
 1095SOL    HW1 3420   0.505   0.746   4.744 -2.1445 -1.8249  0.7365
 1095SOL    HW2 3421   0.414   0.836   4.663  1.2160  0.9014 -0.1998
 1096SOL     OW 3422   4.415   1.901   4.529 -0.2120 -1.0108  0.5103
 1096SOL    HW1 3423   4.469   1.824   4.545  1.5139  0.5911  3.1741
 1096SOL    HW2 3424   4.424   1.918   4.435  0.8520 -2.9410  0.2170
 1097SOL     OW 3425   1.768   4.477   2.609 -0.2722  0.5388  0.4482
 1097SOL    HW1 3426   1.680   4.443   2.622  0.2231 -0.9235  0.1664
 1097SOL    HW2 3427   1.812   4.464   2.693 -0.5882  2.2497  0.9358
 1098SOL     OW 3428   2.636   1.973   0.175 -0.6525 -0.4375  0.1306
 1098SOL    HW1 3429   2.606   1.980   0.265  0.1649  0.2725  0.3634
 1098SOL    HW2 3430   2.634   1.880   0.155 -0.4289 -0.6400  1.0294
 1099SOL     OW 3431   1.490   2.349   2.501 -0.1802 -0.4366  0.3039
 1099SOL    HW1 3432   1.423   2.374   2.438  0.5728 -1.2919 -0.8810
 1099SOL    HW2 3433   1.562   2.410   2.484 -0.1400 -0.3890  0.6447
 1100SOL     OW 3434   0.576   3.365   2.077 -0.5576  0.3147 -0.3211
 1100SOL    HW1 3435   0.660   3.357   2.122 -0.6559 -1.0363 -0.3512
 1100SOL    HW2 3436   0.559   3.460   2.076  0.3721  0.5193  0.7458
 1101SOL     OW 3437   1.748   0.849   4.263  0.1513  0.4154 -0.3112
 1101SOL    HW1 3438   1.656   0.828   4.277  0.4084 -1.0055 -0.5688
 1101SOL    HW2 3439   1.796   0.777   4.304  1.0293 -0.9890 -3.4827
 1102SOL     OW 3440   1.027   4.165   0.435  0.5926 -0.3342  0.6389
 1102SOL    HW1 3441   0.936   4.148   0.459 -0.0076 -0.2214 -1.4085
 1102SOL    HW2 3442   1.038   4.259   0.446  1.5465 -0.6981  4.1566
 1103SOL     OW 3443   1.052   3.125   2.101 -0.3376 -0.3248  0.5663
 1103SOL    HW1 3444   1.040   3.070   2.024 -0.7924  0.6242 -0.0611
 1103SOL    HW2 3445   1.054   3.215   2.067  0.0928  0.0718  1.5885
 1104SOL     OW 3446   0.558   3.875   2.160  0.2281  0.8624  0.1168
 1104SOL    HW1 3447   0.646   3.890   2.197  1.3540  0.0378 -2.0590
 1104SOL    HW2 3448   0.559   3.922   2.077 -0.0809 -1.9097 -1.5921
 1105SOL     OW 3449   1.043   2.196   2.959 -0.0519 -0.4471 -0.0684
 1105SOL    HW1 3450   0.965   2.251   2.972  1.1078  1.2373  0.0633
 1105SOL    HW2 3451   1.089   2.237   2.885  0.7305 -1.4053 -0.1301
 1106SOL     OW 3452   4.772   4.683   2.816 -0.0320 -0.4153  0.1448
 1106SOL    HW1 3453   4.774   4.773   2.786  1.4203  0.2423  1.9973
 1106SOL    HW2 3454   4.716   4.637   2.754 -0.1614  1.5866 -1.2786
 1107SOL     OW 3455   3.469   3.549   3.625 -0.0724  0.0937 -0.1342
 1107SOL    HW1 3456   3.476   3.554   3.530 -0.8848  1.0479 -0.1580
 1107SOL    HW2 3457   3.556   3.573   3.657  0.3705 -0.7899 -0.6308
 1108SOL     OW 3458   1.216   3.004   3.820  0.2125  0.1628  0.3625
 1108SOL    HW1 3459   1.273   2.985   3.745 -0.6298 -2.3327  0.2574
 1108SOL    HW2 3460   1.273   2.996   3.896  0.3888 -0.5432  0.1605
 1109SOL     OW 3461   3.488   0.952   2.653  0.5722  0.4532 -0.3217
 1109SOL    HW1 3462   3.470   1.021   2.589 -1.4393  0.2333 -0.0751
 1109SOL    HW2 3463   3.498   0.998   2.736 -0.3032  0.5122 -0.2362
 1110SOL     OW 3464   2.464   2.974   3.350  0.1931  0.7431  0.6692
 1110SOL    HW1 3465   2.456   2.905   3.416  0.1377  0.3313  0.2394
 1110SOL    HW2 3466   2.503   3.048   3.397  0.3333  0.3913  1.1137
 1111SOL     OW 3467   3.145   3.048   4.650  0.0518 -0.1638  0.1556
 1111SOL    HW1 3468   3.155   3.033   4.556  0.9217 -3.8653  0.6902
 1111SOL    HW2 3469   3.057   3.016   4.671 -0.6751  1.8628  0.5113
 1112SOL     OW 3470   1.735   0.805   0.998 -0.1953  0.2541 -0.5468
 1112SOL    HW1 3471   1.771   0.882   0.955  1.9964 -0.0702  0.5254
 1112SOL    HW2 3472   1.730   0.739   0.929 -1.7520  1.2274 -1.3902
 1113SOL     OW 3473   1.162   0.789   4.746 -0.6387  0.0278  0.2300
 1113SOL    HW1 3474   1.131   0.704   4.715 -1.4052  0.4387 -0.1440
 1113SOL    HW2 3475   1.162   0.845   4.668  0.7793  0.1268  0.2686
 1114SOL     OW 3476   1.530   2.005   4.221 -0.1048 -0.2337  0.1886
 1114SOL    HW1 3477   1.471   1.980   4.292  1.2712 -1.1851  1.0514
 1114SOL    HW2 3478   1.564   1.922   4.188 -2.3711  0.0048 -3.1379
 1115SOL     OW 3479   2.096   3.618   0.853 -0.2395  0.5420  0.2389
 1115SOL    HW1 3480   2.001   3.615   0.843 -0.1397  0.1607 -0.7545
 1115SOL    HW2 3481   2.125   3.529   0.832  0.3338  0.6416  0.5732
 1116SOL     OW 3482   4.543   3.636   2.100 -0.1244 -0.2298  0.4206
 1116SOL    HW1 3483   4.568   3.668   2.187  1.5639  0.2431 -0.1846
 1116SOL    HW2 3484   4.599   3.559   2.087  1.1589  0.8713 -1.0104
 1117SOL     OW 3485   1.638   3.811   2.187 -0.1195  0.3117 -1.2329
 1117SOL    HW1 3486   1.674   3.724   2.171 -0.6970 -0.6024  1.8332
 1117SOL    HW2 3487   1.703   3.871   2.150  3.6116 -1.3251  1.9535
 1118SOL     OW 3488   1.758   3.454   1.253 -0.0747 -0.3330  0.4611
 1118SOL    HW1 3489   1.689   3.400   1.292  1.0682 -0.9294  1.7191
 1118SOL    HW2 3490   1.778   3.519   1.320  0.7734 -0.3388  0.2179
 1119SOL     OW 3491   3.281   4.808   0.436  0.3876  0.6308 -0.3728
 1119SOL    HW1 3492   3.207   4.779   0.382  0.5167  1.4550 -1.0141
 1119SOL    HW2 3493   3.293   4.900   0.412  0.6158  0.9419  0.8799
 1120SOL     OW 3494   3.741   0.853   3.186 -0.0443  0.2594 -0.0846
 1120SOL    HW1 3495   3.808   0.887   3.125 -0.1532  0.2378 -0.2170
 1120SOL    HW2 3496   3.737   0.760   3.167  0.9346 -0.0134  0.9340
 1121SOL     OW 3497   4.361   2.364   4.324  1.0047  0.7004 -0.1401
 1121SOL    HW1 3498   4.334   2.453   4.346 -1.9244 -0.5749  2.1407
 1121SOL    HW2 3499   4.390   2.369   4.232  0.9967  3.9410 -0.0617
 1122SOL     OW 3500   0.804   2.029   1.798  0.2228  0.0767 -1.0882
 1122SOL    HW1 3501   0.746   1.980   1.739 -0.3626  0.6714 -1.0252
 1122SOL    HW2 3502   0.774   2.119   1.791 -0.1390  0.0970  0.4249
 1123SOL     OW 3503   0.021   2.212   2.078  0.1521 -0.2441 -0.2136
 1123SOL    HW1 3504   0.047   2.217   1.987  0.8973 -0.4659 -0.0173
 1123SOL    HW2 3505  -0.044   2.141   2.081  1.8338 -1.8465 -0.1892
 1124SOL     OW 3506   2.659   0.160   3.029  0.2225  0.1761 -0.0181
 1124SOL    HW1 3507   2.705   0.099   3.087 -1.7820 -1.8498 -0.4131
 1124SOL    HW2 3508   2.714   0.165   2.951  0.9691 -0.2489  0.4599
 1125SOL     OW 3509   2.681   0.577   0.255 -0.1482  0.1524 -0.2030
 1125SOL    HW1 3510   2.679   0.574   0.351 -1.2204  0.2333 -0.2060
 1125SOL    HW2 3511   2.720   0.662   0.234  0.3808  0.0011  0.1576
 1126SOL     OW 3512   4.312   1.119   1.029 -0.2200 -0.1992  0.1419
 1126SOL    HW1 3513   4.284   1.199   0.983  0.8702 -0.2227 -0.5940
 1126SOL    HW2 3514   4.327   1.148   1.119  4.1765  1.5100 -0.8888
 1127SOL     OW 3515   4.574   4.152   2.300  0.3583  0.5373 -0.6647
 1127SOL    HW1 3516   4.548   4.124   2.388  0.7668  2.1470  0.0118
 1127SOL    HW2 3517   4.517   4.102   2.241 -0.2186 -0.2662  0.5233
 1128SOL     OW 3518   1.739   2.009   1.447  0.0264  0.4347 -0.6316
 1128SOL    HW1 3519   1.824   1.993   1.408  0.0416 -0.3998 -0.2894
 1128SOL    HW2 3520   1.759   2.042   1.535 -0.0085  1.9133 -1.1551
 1129SOL     OW 3521   4.161   2.252   3.957  0.3168  0.2839 -0.0181
 1129SOL    HW1 3522   4.209   2.319   4.006 -1.6186  1.7522 -0.0036
 1129SOL    HW2 3523   4.223   2.181   3.947  2.1378  1.6561  0.8875
 1130SOL     OW 3524   3.839   4.309   1.162 -0.1043  0.3215 -0.4481
 1130SOL    HW1 3525   3.843   4.213   1.162  2.6168  0.3696 -1.1429
 1130SOL    HW2 3526   3.893   4.336   1.236  2.0991  1.2751 -2.2549
 1131SOL     OW 3527   3.584   3.034   3.697  0.1015  0.7717  0.0975
 1131SOL    HW1 3528   3.586   3.096   3.770  1.2582  0.6897  0.1504
 1131SOL    HW2 3529   3.620   2.953   3.734  1.1009  0.8506 -0.6805
 1132SOL     OW 3530   0.745   1.290   2.664  0.2930  0.2905 -0.0944
 1132SOL    HW1 3531   0.824   1.250   2.700  0.4089  0.3107 -0.3225
 1132SOL    HW2 3532   0.758   1.384   2.678  0.9067  0.4084 -1.2832
 1133SOL     OW 3533   0.307   1.054   1.831  1.3981  0.3426  0.4212
 1133SOL    HW1 3534   0.288   1.148   1.842 -0.7919  0.0867 -0.6724
 1133SOL    HW2 3535   0.237   1.010   1.880  1.6477 -0.7238 -0.1655
 1134SOL     OW 3536   1.927   1.416   1.284 -0.0849  0.7284 -0.1098
 1134SOL    HW1 3537   1.988   1.347   1.312 -0.5274 -0.0445 -1.0050
 1134SOL    HW2 3538   1.980   1.475   1.231  0.1647  0.7513  0.1618
 1135SOL     OW 3539   4.641   1.460   1.090  0.4345  0.2775  0.0531
 1135SOL    HW1 3540   4.647   1.556   1.097 -2.0848  0.4920  0.3019
 1135SOL    HW2 3541   4.715   1.428   1.141  1.4418  2.0832 -0.1661
 1136SOL     OW 3542   1.109   1.800   0.287  0.0379 -0.1614 -1.0543
 1136SOL    HW1 3543   1.170   1.758   0.227 -1.1590 -1.3453 -1.4812
 1136SOL    HW2 3544   1.107   1.743   0.364  1.2469  1.1264 -0.0172
 1137SOL     OW 3545   1.913   2.960   2.509 -0.0667 -0.2541  0.6469
 1137SOL    HW1 3546   2.004   2.984   2.521  0.3799 -1.7641  0.4494
 1137SOL    HW2 3547   1.899   2.966   2.414  0.4448 -2.0632  0.4369
 1138SOL     OW 3548   2.904   0.747   0.406 -0.2842  0.4589  0.5406
 1138SOL    HW1 3549   2.920   0.841   0.414 -0.7479  0.8551 -2.2888
 1138SOL    HW2 3550   2.814   0.735   0.438 -0.3818  1.0501  0.4997
 1139SOL     OW 3551   2.657   1.069   2.435  0.0733  0.5864  0.3463
 1139SOL    HW1 3552   2.688   1.134   2.371  2.0967  0.4588  1.1295
 1139SOL    HW2 3553   2.684   0.985   2.398  1.3213  0.5180  1.3559
 1140SOL     OW 3554   4.780   1.321   3.015  0.1283 -0.6745 -0.0626
 1140SOL    HW1 3555   4.718   1.273   2.960 -0.5380 -1.3826  1.2444
 1140SOL    HW2 3556   4.864   1.279   2.998 -0.0091 -0.6597 -0.7871
 1141SOL     OW 3557   0.381   1.872   0.274  0.2199 -0.5654  0.3307
 1141SOL    HW1 3558   0.315   1.881   0.206  1.5065 -0.3778 -0.9583
 1141SOL    HW2 3559   0.384   1.778   0.292 -0.2039 -0.6041  0.2022
 1142SOL     OW 3560   1.187   4.039   0.654 -0.5168  0.2400 -0.0525
 1142SOL    HW1 3561   1.266   4.062   0.604 -0.5808 -0.8279 -0.6903
 1142SOL    HW2 3562   1.114   4.065   0.598 -0.6121  0.5213  0.2004
 1143SOL     OW 3563   3.161   0.254   3.274  0.4267  0.1433  0.0993
 1143SOL    HW1 3564   3.100   0.243   3.200 -1.6678 -0.5979  1.8487
 1143SOL    HW2 3565   3.194   0.343   3.263 -0.7145  0.4626 -1.1100
 1144SOL     OW 3566   3.097   4.762   3.899 -0.5950 -0.4485  0.8874
 1144SOL    HW1 3567   3.077   4.816   3.975  0.1726  0.8633  0.1940
 1144SOL    HW2 3568   3.171   4.708   3.927 -0.0940  0.2699  0.9728
 1145SOL     OW 3569   1.510   4.881   1.062  0.4805 -0.0784  0.4438
 1145SOL    HW1 3570   1.552   4.962   1.030 -2.0443  0.9720 -0.4367
 1145SOL    HW2 3571   1.532   4.816   0.995 -0.2706  0.7697 -0.6781
 1146SOL     OW 3572   4.581   3.965   2.091 -0.6261  0.3244  0.4913
 1146SOL    HW1 3573   4.506   3.911   2.065  0.1322 -0.8593  0.7356
 1146SOL    HW2 3574   4.641   3.961   2.016 -0.7943  1.3043  0.2790
 1147SOL     OW 3575   3.166   2.842   1.866 -0.2488 -0.2439 -0.2154
 1147SOL    HW1 3576   3.192   2.897   1.939  0.1650 -0.6317 -0.0687
 1147SOL    HW2 3577   3.238   2.780   1.855 -0.1845 -0.0324 -1.1146
 1148SOL     OW 3578   2.670   3.802   4.587 -0.1797 -0.4641  0.0224
 1148SOL    HW1 3579   2.706   3.868   4.646  0.6509  1.4354 -2.3898
 1148SOL    HW2 3580   2.722   3.811   4.507 -1.2849 -2.8115 -1.0601
 1149SOL     OW 3581   2.113   4.807   3.712  0.6486 -0.2989  0.1073
 1149SOL    HW1 3582   2.147   4.867   3.779  0.2725 -1.5317  1.4694
 1149SOL    HW2 3583   2.018   4.805   3.729  0.4393 -0.0391 -0.9820
 1150SOL     OW 3584   0.874   3.076   0.867 -0.4805  0.5411 -0.4266
 1150SOL    HW1 3585   0.931   3.049   0.795  0.1657 -0.0200  0.2861
 1150SOL    HW2 3586   0.786   3.074   0.830 -0.2643 -0.7473 -0.9100
 1151SOL     OW 3587   4.602   0.791   3.613 -0.2284 -0.1047 -0.1650
 1151SOL    HW1 3588   4.681   0.841   3.635 -0.6248  0.4645 -0.0210
 1151SOL    HW2 3589   4.531   0.854   3.619 -0.3425  0.2835 -3.7041
 1152SOL     OW 3590   0.094   3.451   1.885  0.5383  1.0801  0.1675
 1152SOL    HW1 3591   0.033   3.388   1.923  0.8893  1.4271  1.3442
 1152SOL    HW2 3592   0.061   3.536   1.914  0.2017  1.4558 -1.2142
 1153SOL     OW 3593   1.217   2.188   4.126 -1.2001 -0.3054  0.2148
 1153SOL    HW1 3594   1.255   2.133   4.057 -3.4962 -2.8842  0.8334
 1153SOL    HW2 3595   1.256   2.274   4.112 -0.0078 -1.2172 -2.9919
 1154SOL     OW 3596   3.628   1.877   1.598 -0.3538  0.1359 -0.3575
 1154SOL    HW1 3597   3.644   1.892   1.692 -0.4545 -2.5722  0.1710
 1154SOL    HW2 3598   3.591   1.959   1.567 -1.6845  0.6740  2.3219
 1155SOL     OW 3599   3.528   2.574   1.828  0.2210 -0.2797 -0.8661
 1155SOL    HW1 3600   3.545   2.548   1.738 -0.4964 -0.5574 -0.9273
 1155SOL    HW2 3601   3.440   2.542   1.846 -0.2548  1.1496 -0.5787
 1156SOL     OW 3602   2.342   4.811   2.974  0.1854 -0.1427  0.5781
 1156SOL    HW1 3603   2.373   4.901   2.983 -1.8075  0.6227  0.4610
 1156SOL    HW2 3604   2.419   4.760   2.951  1.2280  1.6612 -0.0757
 1157SOL     OW 3605   1.312   0.584   2.985 -0.2071 -0.0542  0.1646
 1157SOL    HW1 3606   1.266   0.501   2.970 -0.7123  0.1182  0.7272
 1157SOL    HW2 3607   1.297   0.635   2.906  2.2913 -1.4704 -1.3461
 1158SOL     OW 3608   1.225   3.664   3.807  0.0215 -0.1177 -0.0235
 1158SOL    HW1 3609   1.168   3.692   3.735  0.0839  0.9776  0.3271
 1158SOL    HW2 3610   1.307   3.713   3.792 -0.2248  0.7154  1.1947
 1159SOL     OW 3611   4.772   1.010   1.326 -0.3263  0.0895 -0.0418
 1159SOL    HW1 3612   4.708   1.005   1.397 -1.6298 -0.9411 -1.2353
 1159SOL    HW2 3613   4.845   0.957   1.356 -0.7225 -0.0810  0.6547
 1160SOL     OW 3614   4.585   2.083   4.009  0.3749 -0.2011 -0.1690
 1160SOL    HW1 3615   4.536   2.009   4.046  0.0820  0.0356 -0.0811
 1160SOL    HW2 3616   4.640   2.044   3.941  0.0712 -0.4698 -0.2634
 1161SOL     OW 3617   0.575   2.611   1.973 -0.0603 -0.0909 -0.6531
 1161SOL    HW1 3618   0.560   2.517   1.964  1.6004 -0.3789 -0.7938
 1161SOL    HW2 3619   0.620   2.621   2.057  0.1733  0.5155 -0.8414
 1162SOL     OW 3620   0.689   4.061   2.615  0.1882  0.6617 -0.0813
 1162SOL    HW1 3621   0.648   4.129   2.669  3.3984  2.3716  0.4896
 1162SOL    HW2 3622   0.733   4.004   2.677 -0.0086 -0.2120 -0.7201
 1163SOL     OW 3623   1.229   2.173   3.183  0.4043  0.1213 -0.5104
 1163SOL    HW1 3624   1.199   2.238   3.245  1.9241  1.4293 -1.0739
 1163SOL    HW2 3625   1.190   2.199   3.099 -0.1294 -0.5372 -0.4734
 1164SOL     OW 3626   2.167   0.050   3.397  0.4096 -0.4215 -1.0590
 1164SOL    HW1 3627   2.121   0.105   3.334 -2.2412 -0.6046  0.5308
 1164SOL    HW2 3628   2.111  -0.028   3.406  1.1455 -0.7901  0.8204
 1165SOL     OW 3629   2.573   1.942   4.541  0.2405  0.3330  0.1362
 1165SOL    HW1 3630   2.599   1.995   4.616 -1.1985  0.3733  0.6384
 1165SOL    HW2 3631   2.516   2.000   4.489  0.3383 -0.0492 -0.4040
 1166SOL     OW 3632   3.051   2.683   1.204 -0.2189 -0.4449  0.2210
 1166SOL    HW1 3633   2.959   2.695   1.181 -0.3010 -0.1516  0.6746
 1166SOL    HW2 3634   3.054   2.699   1.299  0.5233  0.9696 -0.0189
 1167SOL     OW 3635   0.578   0.767   2.041  0.4185  0.2265  0.2947
 1167SOL    HW1 3636   0.534   0.851   2.052 -2.3670 -1.0407 -0.2613
 1167SOL    HW2 3637   0.557   0.741   1.951 -0.0375 -1.7142  0.9211
 1168SOL     OW 3638   3.537   1.150   1.649 -0.2639 -0.0343  0.1165
 1168SOL    HW1 3639   3.479   1.183   1.718  0.2531  1.9908 -0.3253
 1168SOL    HW2 3640   3.513   1.201   1.572  1.0289 -0.2628 -0.4640
 1169SOL     OW 3641   3.748   1.803   3.609  0.2727 -0.2292  0.4668
 1169SOL    HW1 3642   3.736   1.891   3.646  1.4335 -1.0028  2.8785
 1169SOL    HW2 3643   3.812   1.761   3.668  1.2782 -2.0244 -1.7722
 1170SOL     OW 3644   3.947   0.353   1.737  0.6874  0.0514  0.0148
 1170SOL    HW1 3645   3.911   0.440   1.753  3.9582  1.6193 -0.5240
 1170SOL    HW2 3646   3.979   0.356   1.647  0.6287 -1.8388 -0.1190
 1171SOL     OW 3647   3.060   4.763   0.292  0.4784 -0.3235  0.2967
 1171SOL    HW1 3648   3.016   4.842   0.261  0.8878 -0.6644 -1.2342
 1171SOL    HW2 3649   3.013   4.691   0.250  1.3957 -0.7782  0.0179
 1172SOL     OW 3650   1.628   4.650   3.081 -0.9757 -0.2744 -0.2614
 1172SOL    HW1 3651   1.572   4.608   3.016 -0.9758  0.2907 -0.6322
 1172SOL    HW2 3652   1.703   4.683   3.032 -1.4213  0.9675 -0.1470
 1173SOL     OW 3653   0.486   2.469   0.185  0.1769 -0.7299  0.1613
 1173SOL    HW1 3654   0.541   2.481   0.263 -0.0315 -2.3153  0.5848
 1173SOL    HW2 3655   0.396   2.477   0.218  0.1076 -0.2828 -0.1311
 1174SOL     OW 3656   3.328   2.397   0.248  0.3269  0.1169  0.7237
 1174SOL    HW1 3657   3.329   2.404   0.344  0.5479  1.1915  0.6589
 1174SOL    HW2 3658   3.258   2.456   0.221  1.9119  1.8165  0.1125
 1175SOL     OW 3659   1.903   2.215   2.768  0.5006  0.1003  0.4027
 1175SOL    HW1 3660   1.814   2.182   2.779  1.3733 -2.6084  0.0569
 1175SOL    HW2 3661   1.893   2.292   2.711 -1.4837 -1.0557 -0.9420
 1176SOL     OW 3662   0.797   0.419   2.835  0.3350  0.4885 -0.5890
 1176SOL    HW1 3663   0.863   0.393   2.770 -0.8460 -1.5185 -1.0896
 1176SOL    HW2 3664   0.713   0.395   2.794 -0.4938 -0.0749  1.3486
 1177SOL     OW 3665   1.506   4.414   2.034  0.0604  0.2271  0.1760
 1177SOL    HW1 3666   1.521   4.345   1.970  1.0307  0.5127  0.0800
 1177SOL    HW2 3667   1.502   4.368   2.118  0.5822  0.0322  0.0981
 1178SOL     OW 3668   3.578   3.918   5.001 -0.1902 -0.2149 -0.2243
 1178SOL    HW1 3669   3.565   3.855   5.072  1.5293  0.5834  0.8697
 1178SOL    HW2 3670   3.502   3.975   5.005 -1.2088 -1.5198 -0.4929
 1179SOL     OW 3671   0.519   1.592   1.937 -0.1440 -0.0936  0.3845
 1179SOL    HW1 3672   0.495   1.679   1.970 -1.5679 -0.5848  0.7097
 1179SOL    HW2 3673   0.443   1.537   1.957  0.9700 -1.5559  0.6937
 1180SOL     OW 3674   5.043   4.133   0.623 -0.2225  0.5126 -0.2713
 1180SOL    HW1 3675   4.999   4.147   0.707  0.3065  0.1113  0.0781
 1180SOL    HW2 3676   5.003   4.197   0.564  0.7092  2.0978  0.7537
 1181SOL     OW 3677   0.791   1.657   4.787  0.3091 -0.4779  0.5851
 1181SOL    HW1 3678   0.791   1.570   4.747  1.2619 -0.6736  0.9883
 1181SOL    HW2 3679   0.703   1.691   4.769  0.9270 -0.1653 -2.4758
 1182SOL     OW 3680   2.851   2.804   2.356  0.6770 -0.4725 -0.4737
 1182SOL    HW1 3681   2.916   2.856   2.403 -1.1797  2.0884 -0.4911
 1182SOL    HW2 3682   2.778   2.796   2.418  0.3714 -1.8891 -0.9917
 1183SOL     OW 3683   0.766   0.957   4.947  0.1302 -0.0197 -0.2984
 1183SOL    HW1 3684   0.764   1.041   4.992 -0.1598  0.4647 -1.2020
 1183SOL    HW2 3685   0.755   0.978   4.855  1.0057 -0.9775 -0.6480
 1184SOL     OW 3686   4.777   1.042   4.146  0.0461 -0.0537  0.1022
 1184SOL    HW1 3687   4.783   0.947   4.156  1.1245  0.1608  1.9436
 1184SOL    HW2 3688   4.733   1.054   4.062  3.1894 -2.1634 -2.0878
 1185SOL     OW 3689   0.901   4.994   0.161 -0.4640 -0.0381 -0.0712
 1185SOL    HW1 3690   0.943   5.009   0.076  0.9938  0.8197  0.7587
 1185SOL    HW2 3691   0.841   4.921   0.146 -0.2650  0.1173 -1.8343
 1186SOL     OW 3692   2.925   4.534   0.215  0.8897  0.1881 -0.0760
 1186SOL    HW1 3693   2.832   4.539   0.197  0.6418  1.1758  1.2905
 1186SOL    HW2 3694   2.936   4.451   0.261  0.8297 -0.3058 -0.9381
 1187SOL     OW 3695   2.002   1.352   0.064  0.0555 -0.0658 -0.1855
 1187SOL    HW1 3696   1.947   1.353  -0.015  2.2693 -0.4698 -1.8233
 1187SOL    HW2 3697   2.086   1.317   0.034  0.9290 -0.3973  2.4193
 1188SOL     OW 3698   4.207   1.781   3.849 -0.4609  0.0311 -0.2444
 1188SOL    HW1 3699   4.115   1.776   3.876 -0.9194  3.3272 -0.7124
 1188SOL    HW2 3700   4.205   1.763   3.755 -0.1175 -2.7735  0.2069
 1189SOL     OW 3701   0.316   1.979   3.790  0.8607  0.1902 -0.6536
 1189SOL    HW1 3702   0.264   1.908   3.751  0.8066 -0.2723  0.2311
 1189SOL    HW2 3703   0.395   1.935   3.822  0.9424  0.5735 -0.3205
 1190SOL     OW 3704   1.983   0.969   0.029 -0.0088  0.1150  0.8044
 1190SOL    HW1 3705   1.947   0.997   0.113 -0.2357  3.1179 -0.1842
 1190SOL    HW2 3706   1.942   1.027  -0.035  1.9065 -0.5318 -1.1234
 1191SOL     OW 3707   1.285   1.193   4.485  0.1721  0.1650 -0.2574
 1191SOL    HW1 3708   1.264   1.274   4.438 -1.6521 -0.4740 -0.6274
 1191SOL    HW2 3709   1.283   1.217   4.577  0.6985  0.7570 -0.3912
 1192SOL     OW 3710   3.945   1.849   4.199 -0.1146 -0.6516  0.1108
 1192SOL    HW1 3711   3.864   1.798   4.194  0.4731 -1.5470 -1.0119
 1192SOL    HW2 3712   3.929   1.914   4.267 -1.4091 -1.4530  0.6147
 1193SOL     OW 3713   1.857   1.616   0.377 -0.4252  0.5306  0.1961
 1193SOL    HW1 3714   1.863   1.569   0.460 -0.7509  0.4938  0.2004
 1193SOL    HW2 3715   1.918   1.570   0.319  0.7483  1.3135  0.7679
 1194SOL     OW 3716   2.182   2.784   1.695 -0.2365  0.3338 -0.8861
 1194SOL    HW1 3717   2.241   2.710   1.690  0.1682  0.6892 -1.4869
 1194SOL    HW2 3718   2.096   2.746   1.712  0.1861 -0.1716  0.1795
 1195SOL     OW 3719   2.521   2.497   3.548  0.3560 -0.0215  0.3074
 1195SOL    HW1 3720   2.584   2.435   3.512  1.3236 -1.9523  4.6486
 1195SOL    HW2 3721   2.448   2.443   3.577  0.2829  1.0792  2.3401
 1196SOL     OW 3722   3.486   2.987   2.422 -0.1635  0.2058  0.1063
 1196SOL    HW1 3723   3.507   2.893   2.423  0.4027  0.3269 -0.2343
 1196SOL    HW2 3724   3.486   3.013   2.514  0.5452  0.0597  0.1541
 1197SOL     OW 3725   4.856   2.930   4.586  0.6062  0.2427 -0.0251
 1197SOL    HW1 3726   4.807   2.881   4.652  1.3839 -0.9939 -0.3429
 1197SOL    HW2 3727   4.897   2.863   4.532 -0.5512  1.2089 -2.2000
 1198SOL     OW 3728   2.411   0.773   3.447 -0.7739  0.4970 -0.4230
 1198SOL    HW1 3729   2.347   0.715   3.406 -0.1788  0.6775 -1.6603
 1198SOL    HW2 3730   2.492   0.723   3.447 -1.1300 -0.2302  2.3129
 1199SOL     OW 3731   1.154   0.952   4.473  0.1915 -0.0821 -0.2029
 1199SOL    HW1 3732   1.181   1.034   4.432 -1.1321 -0.0706 -1.1199
 1199SOL    HW2 3733   1.124   0.897   4.400 -0.5587 -0.7356  0.5684
 1200SOL     OW 3734   0.667   1.288   3.853  0.9628  0.0557 -0.2752
 1200SOL    HW1 3735   0.601   1.246   3.907  1.5927 -2.1598 -1.1108
 1200SOL    HW2 3736   0.732   1.321   3.915  0.4755 -0.2874  0.4252
 1201SOL     OW 3737   0.935   3.839   4.123 -0.2971 -0.0683  0.5427
 1201SOL    HW1 3738   0.850   3.881   4.117 -0.6810 -0.4902  2.4577
 1201SOL    HW2 3739   0.927   3.760   4.069 -0.5632  0.6984 -0.5726
 1202SOL     OW 3740   3.379   0.541   0.620 -0.4588  0.3701  0.2438
 1202SOL    HW1 3741   3.435   0.580   0.552 -1.0092 -2.3229 -1.9721
 1202SOL    HW2 3742   3.425   0.558   0.702  2.0084  0.9315 -1.1552
 1203SOL     OW 3743   4.357   2.614   0.273 -0.0179 -0.2217  0.1122
 1203SOL    HW1 3744   4.340   2.664   0.193  2.2534 -1.3922 -1.1976
 1203SOL    HW2 3745   4.440   2.647   0.305  0.5477 -1.7514  0.3169
 1204SOL     OW 3746   0.985   2.973   1.890 -0.8207  0.8709 -0.4417
 1204SOL    HW1 3747   1.006   2.883   1.866  0.3245  1.0441 -0.1308
 1204SOL    HW2 3748   0.969   3.017   1.807 -1.2259  0.4223 -0.6058
 1205SOL     OW 3749   3.440   3.062   4.955  0.5266 -0.1544 -0.0038
 1205SOL    HW1 3750   3.493   3.136   4.925  1.1991  0.0523  1.5764
 1205SOL    HW2 3751   3.505   2.993   4.973  0.1039 -0.4081  0.5478
 1206SOL     OW 3752   2.027   3.645   0.555 -0.0366  0.0097 -0.3298
 1206SOL    HW1 3753   2.023   3.649   0.459 -0.4941  2.5031 -0.2557
 1206SOL    HW2 3754   1.964   3.710   0.585 -0.8537 -1.6053  1.7348
 1207SOL     OW 3755   4.250   0.747   0.118 -0.8908  0.5740 -0.2371
 1207SOL    HW1 3756   4.249   0.676   0.054  1.6465  0.3724 -0.1869
 1207SOL    HW2 3757   4.224   0.825   0.069  2.1536  0.6680 -1.9807
 1208SOL     OW 3758   2.936   2.036   1.843  0.1433  0.1226  0.0285
 1208SOL    HW1 3759   2.986   2.099   1.895  0.5615 -0.2469  0.0848
 1208SOL    HW2 3760   2.883   2.090   1.784  0.2356  0.5292  0.3130
 1209SOL     OW 3761   4.802   2.165   4.527  0.5623 -0.0715  0.0326
 1209SOL    HW1 3762   4.736   2.165   4.596  0.8839 -1.0229  0.3640
 1209SOL    HW2 3763   4.767   2.105   4.461 -0.1792  1.5369 -1.0907
 1210SOL     OW 3764   3.419   4.977   1.771 -0.2925  0.1230 -0.1393
 1210SOL    HW1 3765   3.493   4.918   1.787 -0.5178 -0.4091 -0.9576
 1210SOL    HW2 3766   3.432   5.007   1.681 -0.6887  0.5925 -0.0437
 1211SOL     OW 3767   2.326   3.776   3.757  0.3258 -0.3503  0.7576
 1211SOL    HW1 3768   2.314   3.841   3.687  0.3871 -1.3384 -0.1877
 1211SOL    HW2 3769   2.410   3.799   3.796  1.4250 -1.1567 -1.0208
 1212SOL     OW 3770   3.503   0.806   1.477  0.3917  0.1414  0.7297
 1212SOL    HW1 3771   3.460   0.829   1.559  0.5293 -0.4328  0.9711
 1212SOL    HW2 3772   3.449   0.734   1.442  0.8905 -0.2804  0.8148
 1213SOL     OW 3773   1.421   3.664   2.011 -0.0972  0.7912  0.5173
 1213SOL    HW1 3774   1.393   3.625   2.094  0.5339 -1.9099 -0.4432
 1213SOL    HW2 3775   1.341   3.702   1.975 -1.3246 -1.5111  0.6002
 1214SOL     OW 3776   3.045   4.633   4.982 -0.2423  0.2999  0.3828
 1214SOL    HW1 3777   2.960   4.677   4.979 -0.2469  0.2611 -0.1290
 1214SOL    HW2 3778   3.054   4.605   5.074 -0.3014  1.2341  0.6787
 1215SOL     OW 3779   3.526   1.260   3.291  0.0984  0.3610  0.1529
 1215SOL    HW1 3780   3.438   1.289   3.316 -0.1939 -0.2635 -0.1131
 1215SOL    HW2 3781   3.515   1.166   3.273  1.2028 -0.1445  1.9195
 1216SOL     OW 3782   2.320   3.257   3.053  0.2239  0.1258 -0.1480
 1216SOL    HW1 3783   2.274   3.291   3.130 -0.1741  0.7207 -0.6418
 1216SOL    HW2 3784   2.355   3.335   3.010 -0.4345 -0.1001 -1.1331
 1217SOL     OW 3785   1.751   3.596   3.926 -0.1669 -0.4872  0.3585
 1217SOL    HW1 3786   1.830   3.586   3.873 -0.2223 -0.0633  0.1928
 1217SOL    HW2 3787   1.709   3.510   3.924  0.7808 -0.9985  1.2455
 1218SOL     OW 3788   3.759   0.963   3.466 -0.5649 -0.0563 -0.8852
 1218SOL    HW1 3789   3.766   0.933   3.375  2.1509 -0.5679 -0.6022
 1218SOL    HW2 3790   3.746   1.058   3.458  0.6737  0.0661 -1.8629
 1219SOL     OW 3791   4.243   1.136   1.868  0.0446 -0.7144  0.1702
 1219SOL    HW1 3792   4.295   1.069   1.824 -0.8719 -2.3177  1.4277
 1219SOL    HW2 3793   4.254   1.118   1.961 -1.0633  0.2387  0.5110
 1220SOL     OW 3794   4.674   4.948   0.351 -0.0911  0.5314 -0.2820
 1220SOL    HW1 3795   4.592   4.986   0.319 -0.1835 -1.4133 -2.6953
 1220SOL    HW2 3796   4.648   4.893   0.424 -0.5713  1.7110  0.4543
 1221SOL     OW 3797   4.548   2.667   5.036 -0.5846  0.0262  0.0876
 1221SOL    HW1 3798   4.549   2.575   5.008 -1.1898  0.2571 -0.7298
 1221SOL    HW2 3799   4.640   2.694   5.031 -0.5471 -0.2354 -0.7023
 1222SOL     OW 3800   1.538   3.151   3.539  0.7710  0.7867  0.2580
 1222SOL    HW1 3801   1.564   3.223   3.482 -0.4029  2.1794  1.3761
 1222SOL    HW2 3802   1.442   3.150   3.535  0.7548 -0.5011  0.5250
 1223SOL     OW 3803   1.465   4.532   1.555  0.2304 -0.0302 -0.2602
 1223SOL    HW1 3804   1.540   4.550   1.612  1.1665 -1.5412 -0.9596
 1223SOL    HW2 3805   1.391   4.572   1.601  1.5450  2.2813  0.0409
 1224SOL     OW 3806   4.447   3.149   3.690 -0.2595  0.8057  0.0366
 1224SOL    HW1 3807   4.522   3.158   3.631  2.2257 -3.2185  2.0940
 1224SOL    HW2 3808   4.461   3.216   3.757  0.7140  1.0381 -0.3833
 1225SOL     OW 3809   4.868   2.730   1.819 -0.3831  0.1492  0.1186
 1225SOL    HW1 3810   4.775   2.708   1.828 -0.0469 -0.7312  1.9189
 1225SOL    HW2 3811   4.886   2.723   1.725 -1.2012 -3.6930  0.1094
 1226SOL     OW 3812   4.139   2.621   4.018 -0.3789 -0.3138  0.3994
 1226SOL    HW1 3813   4.046   2.631   3.996 -0.3343  1.8972  1.0478
 1226SOL    HW2 3814   4.181   2.698   3.981  0.9678 -0.5290  1.4276
 1227SOL     OW 3815   0.249   3.587   3.146  0.6141  0.0872  0.3536
 1227SOL    HW1 3816   0.248   3.510   3.202 -1.1122 -0.3625 -0.2339
 1227SOL    HW2 3817   0.276   3.555   3.060 -2.5805 -0.4969 -0.5887
 1228SOL     OW 3818   4.467   2.748   4.020 -0.5750  0.2157  0.2843
 1228SOL    HW1 3819   4.462   2.811   3.948 -0.3337 -1.4365 -1.2695
 1228SOL    HW2 3820   4.529   2.786   4.081 -0.8595  1.7257 -0.3229
 1229SOL     OW 3821   4.488   0.884   1.225  0.4141 -0.3440 -0.1472
 1229SOL    HW1 3822   4.551   0.819   1.196  0.9688  0.9840 -2.1317
 1229SOL    HW2 3823   4.424   0.888   1.154 -0.4949  0.1495  0.6787
 1230SOL     OW 3824   2.506   4.742   4.081  0.5120 -0.3656 -0.9094
 1230SOL    HW1 3825   2.515   4.777   4.170 -0.7315 -2.2094 -0.0004
 1230SOL    HW2 3826   2.412   4.743   4.064  0.6715 -0.8027 -1.8815
 1231SOL     OW 3827   1.990   4.635   2.477 -0.5889  0.3682 -0.4660
 1231SOL    HW1 3828   1.924   4.635   2.408  0.0635 -1.6606 -1.1836
 1231SOL    HW2 3829   1.950   4.586   2.549  0.0519 -0.8206 -0.8835
 1232SOL     OW 3830   4.530   0.520   1.443  0.2820 -0.4731  1.0041
 1232SOL    HW1 3831   4.521   0.440   1.392  0.2923 -0.3993  0.8847
 1232SOL    HW2 3832   4.613   0.558   1.413 -0.9099  0.8711 -0.7821
 1233SOL     OW 3833   3.403   2.856   1.673  0.1635 -0.3802  0.3229
 1233SOL    HW1 3834   3.328   2.915   1.663 -1.2495 -2.2201 -0.7212
 1233SOL    HW2 3835   3.464   2.883   1.605  0.5447  1.2162  1.2571
 1234SOL     OW 3836   1.299   0.273   4.245 -0.0590 -0.0848 -0.0523
 1234SOL    HW1 3837   1.330   0.236   4.328  0.6466 -2.5330 -1.3146
 1234SOL    HW2 3838   1.290   0.197   4.187 -1.2291  1.4636 -2.0185
 1235SOL     OW 3839   5.000   0.607   0.684  0.7024  0.3490  0.5811
 1235SOL    HW1 3840   5.013   0.687   0.633  1.4792  0.4251  0.8865
 1235SOL    HW2 3841   5.079   0.599   0.737  0.5865 -0.5690  0.6325
 1236SOL     OW 3842   3.888   1.638   2.334 -0.0704 -0.0681  0.5037
 1236SOL    HW1 3843   3.906   1.553   2.372  0.0112  0.4696  1.7164
 1236SOL    HW2 3844   3.971   1.686   2.340 -0.4005  0.4692  0.8535
 1237SOL     OW 3845   0.818   4.148   3.576 -0.5313 -0.5755 -0.1516
 1237SOL    HW1 3846   0.853   4.122   3.491 -3.2468 -2.3655 -0.8712
 1237SOL    HW2 3847   0.852   4.083   3.637 -1.0851 -1.2179 -0.5077
 1238SOL     OW 3848   3.499   3.128   0.919 -0.1175  0.1864 -0.2260
 1238SOL    HW1 3849   3.576   3.179   0.897 -0.6312  0.1834 -2.2534
 1238SOL    HW2 3850   3.466   3.097   0.835 -1.9609 -0.3535  0.6412
 1239SOL     OW 3851   3.292   4.604   2.589  0.3353  0.0066 -0.4723
 1239SOL    HW1 3852   3.368   4.547   2.579  0.1578 -0.5178  1.0017
 1239SOL    HW2 3853   3.311   4.679   2.531  1.2251 -0.8496 -1.3280
 1240SOL     OW 3854   2.881   0.054   1.250  0.2092  0.5965 -0.0102
 1240SOL    HW1 3855   2.807   0.093   1.205 -0.5648 -0.4690  0.3061
 1240SOL    HW2 3856   2.892  -0.032   1.209  1.7369  1.0064 -0.5457
 1241SOL     OW 3857   0.044   4.557   3.163 -0.2069  0.3649 -0.5852
 1241SOL    HW1 3858   0.108   4.486   3.159 -0.6024 -0.1608  1.2726
 1241SOL    HW2 3859   0.090   4.633   3.129  0.8906 -0.3505 -0.7469
 1242SOL     OW 3860   2.854   4.742   0.524 -0.1732 -0.5175  0.0756
 1242SOL    HW1 3861   2.872   4.748   0.617 -0.8311 -0.8996  0.2350
 1242SOL    HW2 3862   2.939   4.755   0.482 -0.3276  3.0863  0.5766
 1243SOL     OW 3863   4.688   2.939   2.566  0.9606 -0.5178 -0.5443
 1243SOL    HW1 3864   4.624   3.009   2.558  0.5137 -0.8062  0.3913
 1243SOL    HW2 3865   4.759   2.964   2.506  0.5560  0.4401 -0.6331
 1244SOL     OW 3866   2.278   2.780   1.959 -0.3467 -0.5166  0.1633
 1244SOL    HW1 3867   2.256   2.820   1.874  2.5385  0.5973 -0.1789
 1244SOL    HW2 3868   2.292   2.855   2.017 -0.9386 -1.2399  1.2435
 1245SOL     OW 3869   1.203   0.314   3.923 -0.1629  0.9436 -0.8418
 1245SOL    HW1 3870   1.218   0.270   3.840  0.5902  2.3520 -1.4974
 1245SOL    HW2 3871   1.216   0.407   3.903  1.9944  1.1744  1.2703
 1246SOL     OW 3872   3.739   3.746   0.429 -0.1170 -0.1257 -0.6852
 1246SOL    HW1 3873   3.666   3.687   0.411 -0.0068 -0.1044 -1.2203
 1246SOL    HW2 3874   3.761   3.784   0.343 -0.0181  0.4886 -0.3897
 1247SOL     OW 3875   1.629   3.585   0.241 -0.3499  0.1247  0.6216
 1247SOL    HW1 3876   1.545   3.629   0.254 -0.6739 -0.4757  0.6056
 1247SOL    HW2 3877   1.659   3.616   0.155 -0.2631  0.8011  0.8942
 1248SOL     OW 3878   0.912   2.214   1.063  0.2688  0.1045 -0.2593
 1248SOL    HW1 3879   0.986   2.238   1.008  0.4714  1.7364  0.6258
 1248SOL    HW2 3880   0.882   2.130   1.030  1.6808  0.0525 -1.4837
 1249SOL     OW 3881   3.911   4.415   4.056  0.6286 -0.2616  0.1164
 1249SOL    HW1 3882   3.897   4.340   4.114  2.0175 -0.6673 -0.0454
 1249SOL    HW2 3883   4.005   4.429   4.056  0.4291  1.3225 -0.0868
 1250SOL     OW 3884   4.515   1.978   0.021  0.3639 -0.0915 -0.0701
 1250SOL    HW1 3885   4.505   1.884   0.003 -3.0873  0.0672  0.2571
 1250SOL    HW2 3886   4.506   1.986   0.115  0.4548  0.5868 -0.1137
 1251SOL     OW 3887   4.500   2.747   2.315 -0.5810  0.5233 -0.4483
 1251SOL    HW1 3888   4.441   2.679   2.347  1.1269 -0.3307  1.0366
 1251SOL    HW2 3889   4.445   2.825   2.309 -1.9330 -0.3068  0.5720
 1252SOL     OW 3890   3.139   0.458   1.081  0.3763  0.3043 -0.1109
 1252SOL    HW1 3891   3.133   0.440   0.988 -1.5564 -1.0303  0.2045
 1252SOL    HW2 3892   3.130   0.553   1.088 -1.4843  0.2592 -1.2065
 1253SOL     OW 3893   1.354   1.541   1.686  0.5852  0.0036 -0.7500
 1253SOL    HW1 3894   1.429   1.560   1.742  0.3053  1.4412 -0.8196
 1253SOL    HW2 3895   1.378   1.581   1.602 -0.0431  0.0320 -0.9157
 1254SOL     OW 3896   0.731   0.395   0.639  0.3888  0.0392 -0.4208
 1254SOL    HW1 3897   0.767   0.433   0.559 -0.8844  0.8027 -0.6616
 1254SOL    HW2 3898   0.795   0.328   0.664 -0.1169 -1.6282 -3.1554
 1255SOL     OW 3899   0.127   1.161   1.472 -0.5700  0.1837 -0.0313
 1255SOL    HW1 3900   0.218   1.178   1.447 -0.5984 -1.3372 -1.4295
 1255SOL    HW2 3901   0.077   1.229   1.428 -0.1372  0.7667  0.3761
 1256SOL     OW 3902   4.597   1.010   0.458 -0.6013 -0.5121  0.3443
 1256SOL    HW1 3903   4.558   0.924   0.440  0.5443 -1.2357  1.1406
 1256SOL    HW2 3904   4.628   1.041   0.373  1.8095 -2.3711  0.4391
 1257SOL     OW 3905   0.792   3.958   3.208  0.3624 -0.0940  0.1564
 1257SOL    HW1 3906   0.812   3.911   3.289  0.3143 -1.0208 -0.3571
 1257SOL    HW2 3907   0.869   4.012   3.191  0.5519 -0.2246  0.5916
 1258SOL     OW 3908   2.496   0.659   2.352  0.1885 -0.1938  0.0589
 1258SOL    HW1 3909   2.537   0.605   2.420 -0.6950 -1.6396 -0.4981
 1258SOL    HW2 3910   2.526   0.620   2.269  0.5524  0.9919 -0.3853
 1259SOL     OW 3911   3.965   2.178   1.462 -0.0924  0.0556  0.5125
 1259SOL    HW1 3912   3.948   2.192   1.555 -2.2934  0.3666  0.1140
 1259SOL    HW2 3913   4.030   2.245   1.439  0.2008  0.2067  1.7413
 1260SOL     OW 3914   1.417   2.194   3.498 -0.7054 -0.0542 -0.0102
 1260SOL    HW1 3915   1.418   2.101   3.478 -0.8905  0.4812 -2.8292
 1260SOL    HW2 3916   1.508   2.222   3.493 -0.7884  0.1508 -0.4005
 1261SOL     OW 3917   0.008   1.652   0.111 -0.6660 -0.7715 -0.1349
 1261SOL    HW1 3918  -0.060   1.586   0.124  0.5043 -1.6392  2.0542
 1261SOL    HW2 3919   0.062   1.647   0.190  1.3459  0.6082 -1.3318
 1262SOL     OW 3920   0.997   2.202   3.666 -0.4584 -0.9186 -0.3727
 1262SOL    HW1 3921   0.920   2.260   3.664 -0.9138 -1.3719  1.5480
 1262SOL    HW2 3922   1.071   2.261   3.672 -0.7920 -0.4984 -0.3359
 1263SOL     OW 3923   4.601   3.114   3.474  0.5687  0.1487  0.3725
 1263SOL    HW1 3924   4.579   3.023   3.455  1.4284  0.1328 -0.6099
 1263SOL    HW2 3925   4.695   3.119   3.461  0.5315  1.1792  0.4429
 1264SOL     OW 3926   0.206   4.388   1.335 -0.5428  0.4763 -0.3933
 1264SOL    HW1 3927   0.146   4.363   1.405 -1.3091 -0.4757 -1.3687
 1264SOL    HW2 3928   0.280   4.428   1.380 -0.9491 -0.2697  0.9703
 1265SOL     OW 3929   0.461   4.266   2.687 -0.7055 -0.0916  0.3651
 1265SOL    HW1 3930   0.442   4.359   2.698 -2.2340 -0.2466 -0.7565
 1265SOL    HW2 3931   0.505   4.241   2.769 -0.1537  1.6256  0.6238
 1266SOL     OW 3932   3.023   1.910   3.874 -0.2957 -0.2206 -0.0829
 1266SOL    HW1 3933   3.057   1.953   3.952  0.5131  0.4933 -0.8018
 1266SOL    HW2 3934   2.941   1.957   3.855 -1.4234 -1.5404  1.2985
 1267SOL     OW 3935   4.439   2.498   3.453 -0.7017  0.4606 -0.2113
 1267SOL    HW1 3936   4.452   2.439   3.528 -2.5804 -2.3762 -1.9244
 1267SOL    HW2 3937   4.382   2.567   3.487 -0.1007  0.2403  1.3692
 1268SOL     OW 3938   2.785   0.413   1.485  0.0758  0.0741  0.2063
 1268SOL    HW1 3939   2.696   0.385   1.507  0.1198  0.9312  1.6254
 1268SOL    HW2 3940   2.841   0.340   1.511 -0.1000  0.1239  0.7391
 1269SOL     OW 3941   4.790   2.047   0.292  0.4658 -0.1419 -0.6372
 1269SOL    HW1 3942   4.840   2.007   0.221  2.3606 -0.8481  1.0038
 1269SOL    HW2 3943   4.827   2.135   0.301  0.0842  0.0235 -0.6524
 1270SOL     OW 3944   4.382   3.870   1.030 -0.4885 -0.3077  0.8235
 1270SOL    HW1 3945   4.354   3.917   0.952 -1.1723 -1.3685  0.3946
 1270SOL    HW2 3946   4.441   3.930   1.075  1.7058 -0.4733 -1.6163
 1271SOL     OW 3947   1.864   0.752   4.531 -0.4492  0.5899  0.5557
 1271SOL    HW1 3948   1.902   0.728   4.616  0.0956  0.8931  0.4053
 1271SOL    HW2 3949   1.895   0.841   4.515 -0.2467  0.4030 -0.1281
 1272SOL     OW 3950   4.615   2.678   2.653 -0.1416 -0.1620 -0.7367
 1272SOL    HW1 3951   4.643   2.769   2.646  0.8779 -0.5307 -2.0181
 1272SOL    HW2 3952   4.689   2.627   2.620 -0.4601 -1.5081  0.4951
 1273SOL     OW 3953   3.352   4.731   0.951  1.2205  0.0224  0.5955
 1273SOL    HW1 3954   3.396   4.658   0.909  0.3934  0.5166 -1.2263
 1273SOL    HW2 3955   3.355   4.711   1.044  1.5736 -1.9983  0.1815
 1274SOL     OW 3956   4.040   4.139   3.377  0.3575  0.5456  0.5286
 1274SOL    HW1 3957   4.067   4.170   3.291  2.0503 -0.8195  0.5124
 1274SOL    HW2 3958   4.027   4.218   3.429  1.0544  1.3416 -0.4889
 1275SOL     OW 3959   2.262   0.524   3.525  0.5415  0.3365  1.1733
 1275SOL    HW1 3960   2.231   0.529   3.435  0.6531  2.1269  1.1930
 1275SOL    HW2 3961   2.339   0.466   3.522  0.7692  0.6840  0.0480
 1276SOL     OW 3962   0.901   2.161   0.535 -0.4075  0.3093  0.5350
 1276SOL    HW1 3963   0.873   2.182   0.446 -0.7635  1.1984  0.8463
 1276SOL    HW2 3964   0.994   2.141   0.526 -0.4878  0.1847 -0.0738
 1277SOL     OW 3965   3.393   4.634   1.960 -0.4382  0.6199  0.0877
 1277SOL    HW1 3966   3.472   4.668   1.920  0.6132  0.1189  1.6377
 1277SOL    HW2 3967   3.390   4.542   1.936  0.0086  0.4000  0.8523
 1278SOL     OW 3968   1.294   4.629   0.960  0.0847  0.0424 -0.2925
 1278SOL    HW1 3969   1.282   4.586   1.044 -0.5552 -2.1085 -1.4056
 1278SOL    HW2 3970   1.229   4.699   0.958  0.5103  0.5010  1.2106
 1279SOL     OW 3971   2.240   0.912   4.252  0.7156 -0.0349 -0.7288
 1279SOL    HW1 3972   2.163   0.965   4.272  1.1802  0.4085 -0.0495
 1279SOL    HW2 3973   2.209   0.822   4.255  0.1761  0.1512 -0.6634
 1280SOL     OW 3974   4.793   3.322   1.796 -0.4468  0.0034  0.4811
 1280SOL    HW1 3975   4.869   3.305   1.851  1.0598  0.0007 -1.5053
 1280SOL    HW2 3976   4.725   3.350   1.857  0.9960 -0.4409  2.3652
 1281SOL     OW 3977   0.507   4.735   0.683  0.4577 -0.6099 -0.0996
 1281SOL    HW1 3978   0.424   4.760   0.722  0.4289 -1.5105  0.4455
 1281SOL    HW2 3979   0.487   4.718   0.591  0.3858  0.8284 -0.3751
 1282SOL     OW 3980   0.988   0.467   0.140  0.2518  0.1701 -0.5131
 1282SOL    HW1 3981   0.919   0.421   0.092  0.5710  1.1196 -1.9454
 1282SOL    HW2 3982   0.983   0.557   0.108  1.1072  0.6171  0.5612
 1283SOL     OW 3983   0.271   3.937   2.239 -0.4000  0.6246  0.5938
 1283SOL    HW1 3984   0.204   3.889   2.288  0.8460  0.8856  2.7162
 1283SOL    HW2 3985   0.345   3.877   2.236 -0.6997  0.2812 -1.8569
 1284SOL     OW 3986   1.916   3.459   2.612 -0.1518 -0.1470 -0.1769
 1284SOL    HW1 3987   1.868   3.385   2.575  2.1371 -1.3819 -0.8813
 1284SOL    HW2 3988   1.955   3.502   2.536 -1.0402  1.5261  0.2795
 1285SOL     OW 3989   0.959   3.559   4.866 -0.0036  0.3502  0.2424
 1285SOL    HW1 3990   0.886   3.607   4.828  0.6397  1.1026 -0.0638
 1285SOL    HW2 3991   1.036   3.613   4.848  1.0292 -1.6202 -1.6685
 1286SOL     OW 3992   1.699   3.872   0.843  0.2320  0.4206  0.1613
 1286SOL    HW1 3993   1.663   3.949   0.799  1.0688  0.1298 -1.0764
 1286SOL    HW2 3994   1.715   3.810   0.773 -1.5107 -1.3675  1.2375
 1287SOL     OW 3995   3.615   2.106   1.782 -0.2947 -0.5725 -0.6571
 1287SOL    HW1 3996   3.531   2.083   1.821 -0.5183 -1.6966 -1.7263
 1287SOL    HW2 3997   3.594   2.127   1.691  0.6240 -1.3748 -1.0798
 1288SOL     OW 3998   1.334   1.208   1.334  0.2813  0.8775  0.2453
 1288SOL    HW1 3999   1.297   1.249   1.412  0.1445  2.5736 -0.6669
 1288SOL    HW2 4000   1.306   1.264   1.262 -2.2238 -2.2822 -1.4927
 1289SOL     OW 4001   3.894   4.958   1.012  0.7735  0.1745  0.5959
 1289SOL    HW1 4002   3.825   4.904   1.052 -1.1614  1.9578 -0.1437
 1289SOL    HW2 4003   3.871   4.960   0.918 -0.3219  3.5600  0.7818
 1290SOL     OW 4004   4.352   3.507   2.670  0.3750 -0.9573 -0.1549
 1290SOL    HW1 4005   4.393   3.593   2.678  1.3511 -1.4400  0.2576
 1290SOL    HW2 4006   4.350   3.472   2.759 -1.6214 -0.6721 -0.0548
 1291SOL     OW 4007   0.141   0.904   1.499 -0.5173  0.1177  0.2459
 1291SOL    HW1 4008   0.136   0.992   1.463  1.1593  0.0944 -0.1000
 1291SOL    HW2 4009   0.214   0.863   1.454 -0.2883 -0.9331  1.4955
 1292SOL     OW 4010   0.670   4.781   3.854 -0.4039  0.1356 -0.1775
 1292SOL    HW1 4011   0.668   4.692   3.889  2.6515 -0.6563 -1.7105
 1292SOL    HW2 4012   0.725   4.830   3.915  0.6827  0.0687 -1.0733
 1293SOL     OW 4013   3.685   2.397   3.381  0.0380  0.8903 -0.2445
 1293SOL    HW1 4014   3.668   2.349   3.301 -1.6465  1.8867 -0.5355
 1293SOL    HW2 4015   3.724   2.479   3.352  1.1663  0.5027  0.1162
 1294SOL     OW 4016   3.783   1.626   2.697 -0.5213 -0.2160  0.4935
 1294SOL    HW1 4017   3.802   1.567   2.624 -0.5698 -0.7307  0.8947
 1294SOL    HW2 4018   3.755   1.707   2.655  0.7696 -0.0437 -0.0876
 1295SOL     OW 4019   2.979   4.090   4.622 -0.3178 -0.0170  0.8520
 1295SOL    HW1 4020   3.039   4.058   4.555 -0.9802 -0.2873  0.3733
 1295SOL    HW2 4021   2.930   4.160   4.579 -0.0315  0.5230  1.3822
 1296SOL     OW 4022   3.023   1.044   4.543  0.5833 -0.1582 -0.4605
 1296SOL    HW1 4023   3.117   1.046   4.559  0.7827 -1.9575 -1.2199
 1296SOL    HW2 4024   3.015   1.045   4.447 -0.1178 -1.0585 -0.4261
 1297SOL     OW 4025   1.680   4.716   2.428  0.1014  0.5915 -0.1953
 1297SOL    HW1 4026   1.718   4.789   2.477  2.5060  0.2664 -1.4028
 1297SOL    HW2 4027   1.646   4.757   2.348 -0.3236  0.6465  0.0161
 1298SOL     OW 4028   0.752   2.433   4.900  0.2199  0.0465 -0.2023
 1298SOL    HW1 4029   0.846   2.448   4.886  0.6080 -3.9738 -3.5927
 1298SOL    HW2 4030   0.709   2.478   4.827 -0.4480  0.8973  0.6859
 1299SOL     OW 4031   0.891   3.877   3.425  0.1498  0.0944 -0.5094
 1299SOL    HW1 4032   0.972   3.826   3.437  0.5643  1.0076  0.9484
 1299SOL    HW2 4033   0.826   3.831   3.478  0.2713  0.4835 -0.0035
 1300SOL     OW 4034   4.370   2.588   1.413 -0.6015 -0.7547 -0.4366
 1300SOL    HW1 4035   4.338   2.500   1.395 -0.7352 -1.1637  1.5968
 1300SOL    HW2 4036   4.446   2.575   1.470  0.6002  0.3974 -1.6773
 1301SOL     OW 4037   2.731   2.363   0.631 -0.1647 -0.1235 -0.3823
 1301SOL    HW1 4038   2.659   2.305   0.657 -0.0176  0.1060  0.5524
 1301SOL    HW2 4039   2.758   2.406   0.712  1.6851 -0.9313 -0.5330
 1302SOL     OW 4040   2.999   4.159   3.013 -0.7073 -0.2552  0.3982
 1302SOL    HW1 4041   3.065   4.090   3.007  0.1675  0.4169  1.5991
 1302SOL    HW2 4042   3.050   4.240   3.006 -1.8413  0.3168 -2.2576
 1303SOL     OW 4043   3.997   2.817   4.968  0.3728  0.0360 -1.2835
 1303SOL    HW1 4044   3.927   2.791   5.027  0.5255  2.4607  0.1069
 1303SOL    HW2 4045   3.955   2.822   4.882 -0.1163 -2.4697 -1.2548
 1304SOL     OW 4046   2.650   3.779   0.757  0.2619  0.2254 -0.2141
 1304SOL    HW1 4047   2.556   3.763   0.754  0.4197 -1.3291  1.3712
 1304SOL    HW2 4048   2.661   3.849   0.821  0.3308 -1.9110  2.2664
 1305SOL     OW 4049   1.605   1.951   4.975  0.7274  0.2964  0.0800
 1305SOL    HW1 4050   1.533   1.887   4.979  0.9118  0.0834 -0.0132
 1305SOL    HW2 4051   1.617   1.978   5.066 -0.8216  1.8430 -0.1161
 1306SOL     OW 4052   2.495   4.928   0.120  0.3386  0.5265  0.4440
 1306SOL    HW1 4053   2.453   5.013   0.111 -0.3550  0.1665  0.2388
 1306SOL    HW2 4054   2.461   4.892   0.202 -2.0808 -1.0157 -1.1121
 1307SOL     OW 4055   2.488   4.480   1.852  0.7122  0.3225 -0.1584
 1307SOL    HW1 4056   2.394   4.497   1.863  0.5145 -0.6305 -0.2549
 1307SOL    HW2 4057   2.507   4.507   1.763  0.6036  0.8223 -0.0339
 1308SOL     OW 4058   0.460   4.639   0.962  0.3860  0.1089 -0.1414
 1308SOL    HW1 4059   0.386   4.603   0.913  1.6552 -0.2538 -1.8995
 1308SOL    HW2 4060   0.496   4.565   1.010 -1.6315  0.7142  2.5189
 1309SOL     OW 4061   4.072   4.970   3.531 -0.0502 -0.1414  0.0969
 1309SOL    HW1 4062   4.069   4.928   3.617 -1.1598 -0.9550 -0.3038
 1309SOL    HW2 4063   4.048   4.900   3.470  0.1364  0.5710 -0.8176
 1310SOL     OW 4064   1.176   1.366   3.878 -0.5439 -0.3399 -1.2733
 1310SOL    HW1 4065   1.252   1.416   3.907 -1.9065  0.1492  1.8300
 1310SOL    HW2 4066   1.139   1.419   3.807 -0.2764  1.6205 -0.0331
 1311SOL     OW 4067   4.416   2.108   2.193 -0.2117  0.3267  0.7802
 1311SOL    HW1 4068   4.393   2.048   2.122 -0.0006 -0.8842  1.6995
 1311SOL    HW2 4069   4.341   2.104   2.253 -0.2933  1.1705  0.7553
 1312SOL     OW 4070   3.249   4.381   1.314 -0.2601 -0.7804  0.0514
 1312SOL    HW1 4071   3.181   4.445   1.333  0.7345  0.1880  0.4562
 1312SOL    HW2 4072   3.309   4.386   1.389  0.2282 -1.6443 -0.2685
 1313SOL     OW 4073   3.367   1.770   3.140 -0.5487 -0.3773  0.3839
 1313SOL    HW1 4074   3.389   1.688   3.097 -0.6550 -1.0631  1.5818
 1313SOL    HW2 4075   3.272   1.766   3.152 -0.7342  0.5089 -0.6967
 1314SOL     OW 4076   4.718   1.060   2.329  0.4418 -0.0976  0.3025
 1314SOL    HW1 4077   4.635   1.096   2.298  0.8567  1.3719  0.8035
 1314SOL    HW2 4078   4.733   1.105   2.413  1.8162 -0.2278  0.1407
 1315SOL     OW 4079   0.307   1.541   3.798 -0.1654  0.5231 -0.1833
 1315SOL    HW1 4080   0.284   1.486   3.873  0.5644  1.5086  0.7884
 1315SOL    HW2 4081   0.350   1.481   3.737  0.1845 -0.0874  0.6465
 1316SOL     OW 4082   0.744   2.314   3.573 -0.0223 -0.9695 -0.3200
 1316SOL    HW1 4083   0.706   2.389   3.528  2.5574 -0.2193 -1.3907
 1316SOL    HW2 4084   0.713   2.238   3.523 -0.6684 -0.4607 -0.7127
 1317SOL     OW 4085   1.107   3.073   0.046 -0.0013 -0.1073 -0.6328
 1317SOL    HW1 4086   1.149   2.993   0.076 -1.0516 -0.2744  0.5248
 1317SOL    HW2 4087   1.075   3.053  -0.042  2.1686 -0.0009 -1.4841
 1318SOL     OW 4088   0.771   0.191   3.007 -0.0137  0.2814 -0.1671
 1318SOL    HW1 4089   0.855   0.149   2.992 -0.1818  0.6070 -2.3712
 1318SOL    HW2 4090   0.784   0.282   2.981 -0.8537  0.5161  0.1837
 1319SOL     OW 4091   2.975   2.775   2.827  0.0318  0.2460 -0.2894
 1319SOL    HW1 4092   2.886   2.760   2.798  0.6865 -2.2277 -1.2412
 1319SOL    HW2 4093   2.988   2.714   2.900  0.8526  0.8273  0.0741
 1320SOL     OW 4094   4.579   3.876   1.668  0.0333 -0.1029  0.4266
 1320SOL    HW1 4095   4.526   3.907   1.594  1.1258  1.2663  0.1636
 1320SOL    HW2 4096   4.515   3.842   1.731 -0.9571 -0.8771 -0.9303
 1321SOL     OW 4097   0.158   3.942   1.983  0.0248  0.5240 -0.3240
 1321SOL    HW1 4098   0.070   3.979   1.994 -0.4813 -0.4527 -0.9265
 1321SOL    HW2 4099   0.202   3.959   2.066 -1.8075 -1.7951  1.2483
 1322SOL     OW 4100   1.560   2.999   1.300  0.3527  0.1425 -0.2274
 1322SOL    HW1 4101   1.485   2.941   1.287 -0.1813  1.2917 -3.0129
 1322SOL    HW2 4102   1.636   2.941   1.299 -0.1674 -0.6437 -2.9069
 1323SOL     OW 4103   2.469   3.498   3.819 -0.5582  0.0844 -0.5255
 1323SOL    HW1 4104   2.466   3.460   3.732  2.8880 -1.9712  0.0730
 1323SOL    HW2 4105   2.526   3.574   3.810 -0.3770 -0.0008 -0.1033
 1324SOL     OW 4106   0.062   2.475   2.135 -0.4854 -0.2061 -0.1054
 1324SOL    HW1 4107   0.047   2.388   2.099 -0.2103  0.7363 -2.7150
 1324SOL    HW2 4108  -0.018   2.494   2.185 -0.1402 -2.2763  1.3409
 1325SOL     OW 4109   0.966   4.201   1.713  0.3053  0.0303  0.0639
 1325SOL    HW1 4110   0.905   4.132   1.685  0.5390 -0.4178  0.6360
 1325SOL    HW2 4111   1.052   4.159   1.711  0.5786  0.5994 -0.5300
 1326SOL     OW 4112   4.201   0.272   4.124 -0.7657 -0.6440  0.2384
 1326SOL    HW1 4113   4.112   0.304   4.137 -0.4578  0.6806 -0.7843
 1326SOL    HW2 4114   4.192   0.199   4.063 -1.0854 -0.0212 -0.4694
 1327SOL     OW 4115   0.527   4.128   3.545 -0.8594  1.1311  0.6890
 1327SOL    HW1 4116   0.473   4.117   3.467 -0.7542 -1.3127  0.8963
 1327SOL    HW2 4117   0.614   4.099   3.519 -0.7513  0.5669  1.5976
 1328SOL     OW 4118   1.375   1.791   4.989 -0.0701 -0.1683 -0.1555
 1328SOL    HW1 4119   1.362   1.706   4.948  0.5955 -1.1815  1.6097
 1328SOL    HW2 4120   1.298   1.842   4.964 -0.7292 -1.4401 -0.8355
 1329SOL     OW 4121   0.234   4.372   3.970 -0.4705 -0.1589  0.2712
 1329SOL    HW1 4122   0.234   4.385   4.065  1.8135 -1.3634  0.5243
 1329SOL    HW2 4123   0.145   4.390   3.943 -1.0099  0.9362  2.5439
 1330SOL     OW 4124   2.721   3.766   2.324 -0.1457  0.6660  0.2085
 1330SOL    HW1 4125   2.769   3.836   2.369 -1.0311  2.2091 -1.1254
 1330SOL    HW2 4126   2.647   3.748   2.383  0.7450 -0.0393  1.1390
 1331SOL     OW 4127   4.499   3.765   2.684 -0.3819  0.3485  0.0393
 1331SOL    HW1 4128   4.584   3.794   2.719 -1.0364  1.6792  0.6009
 1331SOL    HW2 4129   4.438   3.776   2.757 -0.8019 -2.0445  0.1270
 1332SOL     OW 4130   3.076   4.621   0.925  0.0790  0.1219  0.0501
 1332SOL    HW1 4131   3.167   4.650   0.928  0.5143 -0.7459 -2.3352
 1332SOL    HW2 4132   3.079   4.529   0.951  0.2457 -0.4772 -1.9270
 1333SOL     OW 4133   1.999   1.261   1.621  0.5614  0.1253 -0.0627
 1333SOL    HW1 4134   2.008   1.192   1.686  0.4738  0.8263  0.7144
 1333SOL    HW2 4135   2.012   1.342   1.670  0.2125  0.6843 -0.8634
 1334SOL     OW 4136   0.328   4.232   1.840  0.4498 -0.0236 -0.0860
 1334SOL    HW1 4137   0.260   4.198   1.782  2.7541 -0.2599 -2.8246
 1334SOL    HW2 4138   0.349   4.318   1.804  1.6219  0.0342  0.7005
 1335SOL     OW 4139   3.037   0.607   4.531  0.0906  0.3299  0.6487
 1335SOL    HW1 4140   3.128   0.637   4.533  0.6008 -1.0912  0.0085
 1335SOL    HW2 4141   2.987   0.679   4.570  1.6543  0.4548  2.5633
 1336SOL     OW 4142   1.876   2.881   4.846  0.1963  0.5755  0.0729
 1336SOL    HW1 4143   1.823   2.848   4.919  0.1113 -1.2639 -0.7729
 1336SOL    HW2 4144   1.881   2.808   4.785  1.2884  1.6815 -1.2209
 1337SOL     OW 4145   1.713   2.826   2.650 -0.5443  0.0883 -0.1993
 1337SOL    HW1 4146   1.786   2.877   2.615  0.1453 -0.8786 -0.2060
 1337SOL    HW2 4147   1.647   2.828   2.581 -0.0224 -0.0643 -0.7175
 1338SOL     OW 4148   0.183   4.968   1.673 -0.1954  0.2498  0.3292
 1338SOL    HW1 4149   0.155   5.058   1.655  0.7492  0.4071 -0.4071
 1338SOL    HW2 4150   0.258   4.977   1.731 -0.9699 -0.1398  1.4433
 1339SOL     OW 4151   3.041   1.911   3.482 -0.5129 -1.6154  0.1516
 1339SOL    HW1 4152   3.121   1.877   3.442  0.0048  0.2249 -0.5173
 1339SOL    HW2 4153   3.072   1.980   3.541 -1.6168 -0.2488 -0.7943
 1340SOL     OW 4154   0.191   3.094   3.073 -0.7336 -0.3914  0.0111
 1340SOL    HW1 4155   0.139   3.055   3.002 -1.3707 -0.5305  0.5398
 1340SOL    HW2 4156   0.219   3.020   3.126 -0.8351 -0.2365  0.2836
 1341SOL     OW 4157   4.570   4.110   3.417 -0.0423  0.6651  0.3390
 1341SOL    HW1 4158   4.497   4.092   3.359 -0.2138  0.7968  0.5133
 1341SOL    HW2 4159   4.587   4.026   3.461 -2.2515  1.3588  2.7624
 1342SOL     OW 4160   3.823   4.607   0.230 -0.0426  0.3941 -0.2228
 1342SOL    HW1 4161   3.802   4.700   0.237  0.8459  0.8087 -2.2250
 1342SOL    HW2 4162   3.899   4.595   0.288 -0.9782  0.5789  1.0792
 1343SOL     OW 4163   0.441   0.850   4.108 -0.3775 -0.0123  0.4642
 1343SOL    HW1 4164   0.463   0.764   4.145 -1.8331  0.0982  1.6945
 1343SOL    HW2 4165   0.402   0.898   4.181 -1.3234  1.0244 -0.6822
 1344SOL     OW 4166   3.250   4.851   0.015 -0.3370 -0.2124 -0.5604
 1344SOL    HW1 4167   3.202   4.816   0.090 -1.5253 -0.3296 -1.3386
 1344SOL    HW2 4168   3.285   4.774  -0.030  0.7181 -0.1191  0.0773
 1345SOL     OW 4169   1.566   0.697   3.062 -0.1551 -0.1262 -0.2622
 1345SOL    HW1 4170   1.482   0.694   3.017  0.4574 -0.3913 -1.4146
 1345SOL    HW2 4171   1.546   0.737   3.147 -1.0593  2.0471 -1.4197
 1346SOL     OW 4172   1.819   4.598   4.408  0.9713  0.1105 -0.1513
 1346SOL    HW1 4173   1.778   4.660   4.469 -0.2513  0.7066 -1.5012
 1346SOL    HW2 4174   1.778   4.514   4.429 -1.9197  0.8605 -2.1343
 1347SOL     OW 4175   3.005   3.489   1.927  0.1921  0.4802  0.6252
 1347SOL    HW1 4176   3.079   3.428   1.932 -0.2790 -0.1348  0.1791
 1347SOL    HW2 4177   3.041   3.567   1.884  0.9696  0.7973  1.7927
 1348SOL     OW 4178   0.212   3.834   0.046  0.2446  0.6805  0.4099
 1348SOL    HW1 4179   0.163   3.792   0.116  0.0547  0.5836  0.2197
 1348SOL    HW2 4180   0.156   3.907   0.018  0.1911  0.5486  0.1699
 1349SOL     OW 4181   1.970   4.540   1.385  0.3672  0.2667  0.1343
 1349SOL    HW1 4182   1.898   4.583   1.339  1.5439 -0.0283 -2.1429
 1349SOL    HW2 4183   2.002   4.606   1.447  0.3610  1.7032 -1.3287
 1350SOL     OW 4184   3.669   3.073   0.517  0.0237 -0.6971 -0.1636
 1350SOL    HW1 4185   3.725   3.069   0.595  0.6442  2.3758 -0.3167
 1350SOL    HW2 4186   3.718   3.026   0.449  0.9625 -0.6983  0.4987
 1351SOL     OW 4187   4.146   4.159   1.507 -0.3219  0.0848  0.2176
 1351SOL    HW1 4188   4.133   4.103   1.430  2.9563  0.9050 -1.1213
 1351SOL    HW2 4189   4.098   4.239   1.486 -0.2827 -0.0782 -0.5351
 1352SOL     OW 4190   2.864   2.486   3.830  0.2552 -0.0030  0.3686
 1352SOL    HW1 4191   2.803   2.423   3.867  0.6380 -0.6293 -0.0498
 1352SOL    HW2 4192   2.819   2.570   3.836  0.2606 -0.0886  2.1609
 1353SOL     OW 4193   2.721   4.568   1.007 -0.3503 -0.5285 -0.1555
 1353SOL    HW1 4194   2.645   4.514   1.031  0.4071 -1.3410  0.4682
 1353SOL    HW2 4195   2.786   4.506   0.975 -0.3878  0.2930 -1.9417
 1354SOL     OW 4196   4.621   0.245   0.351 -0.0965  0.9562 -0.2985
 1354SOL    HW1 4197   4.585   0.178   0.293  1.7998 -0.7759  0.4039
 1354SOL    HW2 4198   4.603   0.212   0.439  1.4400  1.0017  0.0544
 1355SOL     OW 4199   3.286   2.927   0.473 -0.0319  0.2462 -0.3192
 1355SOL    HW1 4200   3.295   2.928   0.378 -1.8392 -0.5964 -0.5369
 1355SOL    HW2 4201   3.192   2.935   0.489  0.2127  0.1886  1.3912
 1356SOL     OW 4202   1.827   1.938   3.721 -0.0807 -0.7512 -0.4046
 1356SOL    HW1 4203   1.906   1.954   3.669 -0.0057 -1.3038 -0.4640
 1356SOL    HW2 4204   1.841   1.852   3.761 -0.3523 -0.5508  0.1407
 1357SOL     OW 4205   0.781   0.188   2.450 -0.5753 -0.0571 -0.4767
 1357SOL    HW1 4206   0.829   0.119   2.496  0.7043  1.0933 -0.0209
 1357SOL    HW2 4207   0.701   0.145   2.419 -0.3542 -1.4550  0.7736
 1358SOL     OW 4208   3.720   0.591   4.957  0.1725 -0.1639  0.3417
 1358SOL    HW1 4209   3.764   0.675   4.945  0.1631  0.1448  2.1859
 1358SOL    HW2 4210   3.780   0.527   4.920 -0.2760  0.6747 -2.0629
 1359SOL     OW 4211   0.364   2.232   4.697  0.1932 -0.1309 -0.1346
 1359SOL    HW1 4212   0.419   2.257   4.624  1.2755  2.6779  1.4473
 1359SOL    HW2 4213   0.316   2.312   4.719  0.1652 -0.7346  2.3826
 1360SOL     OW 4214   4.084   1.876   1.384 -0.2484  0.0952 -0.3008
 1360SOL    HW1 4215   4.016   1.885   1.317 -0.4681  4.5875  0.2356
 1360SOL    HW2 4216   4.036   1.864   1.466 -0.4017  1.8116 -0.1100
 1361SOL     OW 4217   1.553   3.462   1.525  0.1522 -0.2460 -0.5065
 1361SOL    HW1 4218   1.534   3.396   1.458 -0.9646  0.2735 -0.7204
 1361SOL    HW2 4219   1.649   3.469   1.525  0.2293 -1.1012 -1.2201
 1362SOL     OW 4220   5.016   3.340   0.086  0.0469 -0.1130  0.3129
 1362SOL    HW1 4221   4.966   3.378   0.014 -0.3470  0.8424  1.0711
 1362SOL    HW2 4222   5.107   3.342   0.056 -0.2076 -0.6235 -0.5354
 1363SOL     OW 4223   1.080   2.616   1.511 -0.3465  0.0656 -0.6119
 1363SOL    HW1 4224   1.096   2.663   1.593  0.4355 -1.1677 -0.0351
 1363SOL    HW2 4225   1.047   2.683   1.451  0.3073  1.2552  0.3218
 1364SOL     OW 4226   0.227   0.363   4.363  0.5320  0.0644 -0.1142
 1364SOL    HW1 4227   0.276   0.384   4.443  2.6462 -0.5623 -1.1963
 1364SOL    HW2 4228   0.233   0.268   4.355 -1.2527 -0.0938 -0.0998
 1365SOL     OW 4229   4.684   3.091   2.097  0.1337 -0.6478 -0.8040
 1365SOL    HW1 4230   4.672   3.131   2.183 -2.2797  0.3382 -1.5244
 1365SOL    HW2 4231   4.595   3.068   2.069  0.9223 -1.4083 -2.8169
 1366SOL     OW 4232   2.171   2.458   2.865 -0.0884 -0.7168  0.0204
 1366SOL    HW1 4233   2.094   2.514   2.866 -0.5243 -1.3005 -0.0777
 1366SOL    HW2 4234   2.222   2.489   2.789  1.5230  1.9171  2.0073
 1367SOL     OW 4235   4.353   2.186   0.553  0.4841  0.0296  0.3121
 1367SOL    HW1 4236   4.414   2.258   0.565  0.7207  0.0328 -0.8357
 1367SOL    HW2 4237   4.333   2.156   0.642  0.7393  1.1974  0.7761
 1368SOL     OW 4238   2.010   1.559   2.870  0.0363  0.3228 -0.0984
 1368SOL    HW1 4239   2.070   1.619   2.915 -0.2233  0.6850 -0.2249
 1368SOL    HW2 4240   2.051   1.473   2.878 -0.2100  0.3098  1.1956
 1369SOL     OW 4241   1.319   0.918   0.678  0.6010  0.2363 -0.1786
 1369SOL    HW1 4242   1.411   0.892   0.680  0.6807  0.5325  1.9004
 1369SOL    HW2 4243   1.298   0.924   0.584  2.2797 -1.2280 -0.7123
 1370SOL     OW 4244   4.808   1.041   0.620  0.1845 -0.0023 -0.0555
 1370SOL    HW1 4245   4.833   1.134   0.619  0.2943 -0.0343 -0.6024
 1370SOL    HW2 4246   4.720   1.040   0.581  0.2185 -0.1377 -0.1270
 1371SOL     OW 4247   0.774   3.007   2.926  0.8176  0.2692 -0.0841
 1371SOL    HW1 4248   0.769   2.961   2.842  1.8018 -0.1972  0.0993
 1371SOL    HW2 4249   0.847   3.068   2.915  1.6810 -0.5840  0.7975
 1372SOL     OW 4250   4.063   2.835   4.243  0.3178 -0.3854  0.1929
 1372SOL    HW1 4251   3.980   2.876   4.269  1.3454  0.5047  2.2565
 1372SOL    HW2 4252   4.042   2.790   4.161 -1.6886  1.5480 -0.4727
 1373SOL     OW 4253   4.410   3.373   4.481  0.3288 -0.4442  0.0736
 1373SOL    HW1 4254   4.442   3.390   4.569 -0.5501 -1.3388  0.5821
 1373SOL    HW2 4255   4.321   3.407   4.480  0.9236  1.1856 -1.0470
 1374SOL     OW 4256   0.770   2.702   1.752  0.5682  0.1180 -0.1229
 1374SOL    HW1 4257   0.722   2.782   1.774 -0.0513 -0.4240  0.5701
 1374SOL    HW2 4258   0.783   2.659   1.837 -1.1289 -1.6284 -0.6906
 1375SOL     OW 4259  -0.011   2.887   1.145  0.0525 -0.3115 -0.2918
 1375SOL    HW1 4260   0.079   2.858   1.156  0.5544  0.7869 -1.2688
 1375SOL    HW2 4261  -0.009   2.980   1.168 -0.7682 -0.1959 -0.6545
 1376SOL     OW 4262   3.770   3.319   3.326 -0.1482 -0.2105  0.2418
 1376SOL    HW1 4263   3.758   3.245   3.385 -0.7519 -0.2244  0.1092
 1376SOL    HW2 4264   3.702   3.307   3.259  1.5152 -1.0976 -1.3998
 1377SOL     OW 4265   1.605   3.939   1.138  1.1396 -0.6713  0.0059
 1377SOL    HW1 4266   1.630   3.925   1.047 -1.3008 -0.6073 -0.7701
 1377SOL    HW2 4267   1.588   4.033   1.143  2.2288 -0.5111  0.8163
 1378SOL     OW 4268   2.736   2.890   5.019 -0.2829 -0.3822  0.1561
 1378SOL    HW1 4269   2.796   2.953   5.059  0.7754 -1.2232 -0.0565
 1378SOL    HW2 4270   2.656   2.940   5.001  0.2008  0.6573  0.8343
 1379SOL     OW 4271   0.308   0.127   0.888  0.3080 -0.2838 -0.1552
 1379SOL    HW1 4272   0.300   0.192   0.818 -1.3432 -1.3659 -1.0556
 1379SOL    HW2 4273   0.272   0.046   0.849 -0.7936 -0.8898  1.9688
 1380SOL     OW 4274   0.657   1.095   2.895  0.0403 -0.0166 -0.3570
 1380SOL    HW1 4275   0.674   1.189   2.904 -0.4373  0.2827 -2.2304
 1380SOL    HW2 4276   0.722   1.053   2.953 -0.7104  1.4723  1.6774
 1381SOL     OW 4277   1.608   2.751   0.252 -0.0296 -0.4218  0.1158
 1381SOL    HW1 4278   1.601   2.686   0.181 -0.6498 -0.9222  0.6236
 1381SOL    HW2 4279   1.697   2.741   0.284 -0.1638 -1.1416  0.2905
 1382SOL     OW 4280   2.426   2.773   3.534 -0.3160  0.0782  0.4944
 1382SOL    HW1 4281   2.416   2.788   3.628 -1.9389  0.7051  0.2646
 1382SOL    HW2 4282   2.434   2.678   3.525 -1.2103 -0.0814  1.2001
 1383SOL     OW 4283   4.852   4.254   1.815 -0.4816 -0.3008  0.0933
 1383SOL    HW1 4284   4.810   4.256   1.901  0.0719 -0.4297  0.3716
 1383SOL    HW2 4285   4.890   4.341   1.804 -0.4187 -0.3330  0.0506
 1384SOL     OW 4286   0.791   3.777   0.982 -0.3699 -0.4343 -0.4229
 1384SOL    HW1 4287   0.733   3.763   1.058 -2.2935 -0.7099 -1.8531
 1384SOL    HW2 4288   0.746   3.733   0.910  1.0893  0.3447 -1.8644
 1385SOL     OW 4289   4.045   3.576   0.223 -0.1875  0.2136 -0.2351
 1385SOL    HW1 4290   4.033   3.669   0.242 -0.2594  0.8675 -3.0135
 1385SOL    HW2 4291   3.983   3.558   0.152  1.7714 -1.2125 -1.6909
 1386SOL     OW 4292   0.595   2.326   1.452 -0.2888  0.2740  0.4344
 1386SOL    HW1 4293   0.638   2.410   1.436  1.5878 -0.7622 -0.2453
 1386SOL    HW2 4294   0.610   2.308   1.544  0.0466  0.3069  0.3891
 1387SOL     OW 4295   3.903   1.349   4.708  0.2550 -0.2231  0.3638
 1387SOL    HW1 4296   3.921   1.365   4.800 -1.0633 -0.4330  0.6771
 1387SOL    HW2 4297   3.980   1.384   4.662  1.6294 -1.4747  1.6072
 1388SOL     OW 4298   4.635   1.696   0.601  0.0450  0.3870  0.3658
 1388SOL    HW1 4299   4.648   1.784   0.564 -0.7233 -0.3641 -1.8595
 1388SOL    HW2 4300   4.545   1.673   0.575  0.6389 -1.5090 -0.1547
 1389SOL     OW 4301   0.605   3.237   1.805  0.1622 -0.4231  0.3032
 1389SOL    HW1 4302   0.624   3.295   1.878  0.5024 -2.6444  2.0869
 1389SOL    HW2 4303   0.521   3.269   1.770  1.6502  2.8019 -0.6612
 1390SOL     OW 4304   1.900   2.955   4.433  0.3414 -0.2517  0.0816
 1390SOL    HW1 4305   1.960   3.020   4.397  1.0337 -1.2339 -0.6012
 1390SOL    HW2 4306   1.938   2.871   4.407 -1.1279 -0.9093 -0.0302
 1391SOL     OW 4307   0.680   4.591   1.490 -0.7743 -0.1834  0.3581
 1391SOL    HW1 4308   0.728   4.519   1.532  0.6888 -0.1067 -1.0957
 1391SOL    HW2 4309   0.640   4.638   1.563 -2.7713 -3.0775  1.3148
 1392SOL     OW 4310   3.927   4.864   4.429  0.1862 -0.3073  0.4263
 1392SOL    HW1 4311   3.966   4.879   4.343  0.6149  3.8758  1.1315
 1392SOL    HW2 4312   3.857   4.928   4.435 -0.1392 -0.7852  3.0419
 1393SOL     OW 4313   4.108   1.636   0.185 -0.3778 -0.0359 -0.3139
 1393SOL    HW1 4314   4.185   1.690   0.208  1.8094 -3.5773  1.5239
 1393SOL    HW2 4315   4.114   1.626   0.090  0.0265  1.6680 -0.5045
 1394SOL     OW 4316   2.281   2.886   0.959 -0.2558 -0.2933 -0.6339
 1394SOL    HW1 4317   2.372   2.910   0.975 -0.3052  0.5381 -1.5435
 1394SOL    HW2 4318   2.274   2.797   0.993  0.5332  0.1302  0.6860
 1395SOL     OW 4319   1.075   1.404   0.705 -0.8077  0.3947 -0.3034
 1395SOL    HW1 4320   1.062   1.404   0.800 -0.4603 -0.7470 -0.2356
 1395SOL    HW2 4321   1.134   1.330   0.690  0.0456  1.2617 -1.3012
 1396SOL     OW 4322   4.507   1.849   3.623  1.0039 -0.3496 -0.3774
 1396SOL    HW1 4323   4.554   1.885   3.548  1.3013 -2.3930 -1.2381
 1396SOL    HW2 4324   4.451   1.781   3.586  0.3362 -0.6637  1.1353
 1397SOL     OW 4325   4.520   3.086   4.057 -0.4063 -0.0301 -0.3754
 1397SOL    HW1 4326   4.587   3.092   3.989 -0.2720 -0.4593 -0.2843
 1397SOL    HW2 4327   4.437   3.094   4.010 -0.2851  1.1282 -0.4193
 1398SOL     OW 4328   1.438   0.671   2.482  0.8262  0.1621 -0.7006
 1398SOL    HW1 4329   1.433   0.696   2.390 -1.0873 -0.4633 -0.8096
 1398SOL    HW2 4330   1.428   0.753   2.530  1.2210  0.4138 -1.0429
 1399SOL     OW 4331   3.273   4.180   1.996  1.1426 -0.9326 -0.3943
 1399SOL    HW1 4332   3.350   4.232   2.020 -1.2549  2.1177  1.3480
 1399SOL    HW2 4333   3.270   4.111   2.062  2.5855 -1.3990 -0.7736
 1400SOL     OW 4334   4.929   4.568   2.264 -0.4081  0.7481  0.4697
 1400SOL    HW1 4335   4.961   4.493   2.214 -0.5415 -0.6694  2.3831
 1400SOL    HW2 4336   5.005   4.626   2.270  0.0641  0.1973 -0.0019
 1401SOL     OW 4337   4.422   0.792   1.491 -0.1291 -0.2196 -0.0604
 1401SOL    HW1 4338   4.449   0.704   1.464 -0.4051 -0.4327  0.3519
 1401SOL    HW2 4339   4.438   0.846   1.414  0.8152 -0.4717 -0.0526
 1402SOL     OW 4340   2.139   0.452   1.007  0.1399  0.0969 -0.3292
 1402SOL    HW1 4341   2.201   0.385   0.981  0.4420  0.3513 -0.2765
 1402SOL    HW2 4342   2.177   0.490   1.087  0.4432  0.9520 -0.8685
 1403SOL     OW 4343   4.214   4.333   3.752  0.4378  0.4080  0.0101
 1403SOL    HW1 4344   4.223   4.416   3.799  2.3579  0.6231 -0.6363
 1403SOL    HW2 4345   4.285   4.334   3.688 -2.1381  0.2104 -3.0998
 1404SOL     OW 4346   1.608   2.449   4.849  0.1675 -1.0738  0.1873
 1404SOL    HW1 4347   1.581   2.478   4.762  1.3199 -0.4589  0.0071
 1404SOL    HW2 4348   1.657   2.368   4.833  1.5280 -0.2640  0.0860
 1405SOL     OW 4349   1.821   0.292   1.025 -0.9500  0.0269 -1.0013
 1405SOL    HW1 4350   1.886   0.230   1.058 -2.9675 -1.7986 -0.2371
 1405SOL    HW2 4351   1.853   0.316   0.938  1.0248 -0.3329 -0.4333
 1406SOL     OW 4352   3.691   2.252   0.686  0.7323 -0.7161  0.0169
 1406SOL    HW1 4353   3.620   2.194   0.661 -0.0845  0.1431  0.2769
 1406SOL    HW2 4354   3.672   2.334   0.641  0.7888 -0.0384  1.1829
 1407SOL     OW 4355   1.309   2.336   4.528 -0.1559 -0.1530  0.2624
 1407SOL    HW1 4356   1.242   2.328   4.595 -0.6007 -1.8462 -0.3247
 1407SOL    HW2 4357   1.274   2.289   4.452 -0.0593  2.4092 -1.5292
 1408SOL     OW 4358   2.855   0.817   4.263  0.2114  0.0599  0.1234
 1408SOL    HW1 4359   2.838   0.909   4.282  0.4584 -0.1458  1.4475
 1408SOL    HW2 4360   2.806   0.769   4.329  1.6698 -0.6870  0.7176
 1409SOL     OW 4361   3.160   2.801   0.783 -0.1724  0.1992 -0.5937
 1409SOL    HW1 4362   3.144   2.887   0.743  0.2657  0.2832 -0.5941
 1409SOL    HW2 4363   3.186   2.821   0.872 -4.3396 -0.0726  0.9124
 1410SOL     OW 4364   3.698   3.698   2.882  0.7582  0.5649  0.8789
 1410SOL    HW1 4365   3.660   3.666   2.801 -2.4676  0.1920  2.3741
 1410SOL    HW2 4366   3.750   3.625   2.915 -1.0530 -0.7627  0.9548
 1411SOL     OW 4367   2.839   1.318   3.002  0.6259  0.2401  0.1546
 1411SOL    HW1 4368   2.900   1.280   2.939 -1.2384 -0.1746 -1.5254
 1411SOL    HW2 4369   2.804   1.243   3.050  0.1233  0.2750 -0.1508
 1412SOL     OW 4370   0.655   3.039   1.612 -0.2864  0.3858 -0.0193
 1412SOL    HW1 4371   0.621   3.015   1.698 -0.6730  0.6611 -0.0976
 1412SOL    HW2 4372   0.681   3.130   1.620 -2.2281  1.0404 -0.7722
 1413SOL     OW 4373   4.884   3.989   3.731  0.0947 -1.1833 -0.2759
 1413SOL    HW1 4374   4.870   3.983   3.636  0.3664 -0.8487 -0.3368
 1413SOL    HW2 4375   4.871   4.081   3.751 -2.0889 -1.5571  0.3588
 1414SOL     OW 4376   2.141   1.774   2.999  0.2775 -0.2012  0.0043
 1414SOL    HW1 4377   2.122   1.859   2.960 -0.1735  0.4654  1.5821
 1414SOL    HW2 4378   2.152   1.793   3.092 -0.4593 -1.9599  0.4899
 1415SOL     OW 4379   3.453   0.932   3.550 -0.1678 -0.3805  1.2324
 1415SOL    HW1 4380   3.546   0.921   3.530 -0.2412  0.9486 -0.0489
 1415SOL    HW2 4381   3.442   1.026   3.560 -1.5083 -0.4445  0.5980
 1416SOL     OW 4382   2.706   3.211   2.270  0.4053  0.2360  0.1648
 1416SOL    HW1 4383   2.747   3.175   2.348 -0.7684 -0.4220  0.5038
 1416SOL    HW2 4384   2.695   3.137   2.211 -0.2584  0.3921  0.0765
 1417SOL     OW 4385   0.882   0.051   1.890 -0.7536  0.1826  0.1469
 1417SOL    HW1 4386   0.811   0.009   1.843 -2.3890  1.6945  1.1231
 1417SOL    HW2 4387   0.892   0.136   1.847  0.8266 -0.1760 -0.2720
 1418SOL     OW 4388   2.026   0.812   3.356  0.2180 -0.0438 -0.3076
 1418SOL    HW1 4389   2.005   0.720   3.373 -1.1505  0.1102 -1.0205
 1418SOL    HW2 4390   2.015   0.821   3.261  1.9196  0.4899 -0.4763
 1419SOL     OW 4391   2.474   1.449   3.147 -0.7709  0.1045 -0.1709
 1419SOL    HW1 4392   2.498   1.362   3.116  0.8785  0.3521  0.3424
 1419SOL    HW2 4393   2.379   1.445   3.159 -0.7912 -1.4335 -0.6974
 1420SOL     OW 4394   3.206   0.569   3.929  0.1048 -0.4526 -0.0638
 1420SOL    HW1 4395   3.173   0.569   4.019 -1.3632 -0.2817 -0.5937
 1420SOL    HW2 4396   3.222   0.661   3.909  0.1482 -0.4642 -0.0826
 1421SOL     OW 4397   1.837   4.218   3.601  0.2453  0.3215  0.0048
 1421SOL    HW1 4398   1.805   4.133   3.632 -1.5085  1.6647  2.2537
 1421SOL    HW2 4399   1.797   4.229   3.515  0.7103 -1.2029 -0.4447
 1422SOL     OW 4400   2.180   1.161   0.585 -0.0490  0.0255 -0.5862
 1422SOL    HW1 4401   2.190   1.164   0.490 -1.7852 -0.0065 -0.7933
 1422SOL    HW2 4402   2.115   1.229   0.605 -0.1599 -0.3834  0.5034
 1423SOL     OW 4403   2.364   3.354   1.595 -0.2293 -0.3999  0.2023
 1423SOL    HW1 4404   2.388   3.375   1.686 -0.5029 -0.7369  0.3557
 1423SOL    HW2 4405   2.402   3.425   1.543  1.0476 -0.8895  0.4423
 1424SOL     OW 4406   4.208   1.368   4.647  0.2630  0.6936  0.3423
 1424SOL    HW1 4407   4.252   1.453   4.654  1.1795  0.3599 -0.9598
 1424SOL    HW2 4408   4.253   1.324   4.575  0.0573 -1.0571  1.2433
 1425SOL     OW 4409   2.628   2.227   1.947  0.2678 -0.4719 -0.6520
 1425SOL    HW1 4410   2.688   2.244   2.019  0.9177 -1.1419 -1.0262
 1425SOL    HW2 4411   2.634   2.133   1.931  0.6526 -0.2421 -2.0217
 1426SOL     OW 4412   2.270   3.357   3.933  0.4221 -0.9893 -0.0656
 1426SOL    HW1 4413   2.256   3.392   4.020 -1.7616  1.7145 -1.3495
 1426SOL    HW2 4414   2.350   3.400   3.902  0.3724 -0.8065  0.0646
 1427SOL     OW 4415   3.728   4.864   0.290 -0.1321 -0.0710  0.6139
 1427SOL    HW1 4416   3.683   4.884   0.208 -1.7974  0.0234  1.5196
 1427SOL    HW2 4417   3.665   4.887   0.358  0.5407 -1.8299  1.8831
 1428SOL     OW 4418   3.805   5.037   2.063  0.5537 -0.6185 -0.1206
 1428SOL    HW1 4419   3.822   4.944   2.045  1.5455 -0.5008  0.1293
 1428SOL    HW2 4420   3.856   5.084   1.997 -0.6743 -0.2459 -0.8301
 1429SOL     OW 4421   0.118   3.300   2.708  0.9290 -0.0985  0.5056
 1429SOL    HW1 4422   0.162   3.313   2.624  1.3601  0.0951  0.7569
 1429SOL    HW2 4423   0.178   3.244   2.758 -0.5184 -2.4421 -0.2496
 1430SOL     OW 4424   4.261   4.680   4.585  0.1024 -1.1412 -0.3666
 1430SOL    HW1 4425   4.259   4.677   4.489 -0.3700 -0.0112 -0.4088
 1430SOL    HW2 4426   4.169   4.695   4.609  0.5164  0.8116  0.1471
 1431SOL     OW 4427   2.582   1.155   2.050  0.0207  0.1906 -0.5184
 1431SOL    HW1 4428   2.585   1.226   1.985  0.1873  0.2995 -0.3924
 1431SOL    HW2 4429   2.648   1.179   2.115 -0.1085  0.0537 -0.3356
 1432SOL     OW 4430   4.711   0.109   1.359  0.2540 -0.2690 -0.1385
 1432SOL    HW1 4431   4.632   0.061   1.336 -0.3425  0.6414 -0.0311
 1432SOL    HW2 4432   4.750   0.134   1.275 -0.0715  0.0737 -0.1897
 1433SOL     OW 4433   1.843   3.083   1.507 -0.6216  0.7834  0.3773
 1433SOL    HW1 4434   1.898   3.161   1.513  0.9399 -0.2204 -0.2820
 1433SOL    HW2 4435   1.758   3.116   1.477 -0.8018  2.5203  2.5568
 1434SOL     OW 4436   2.296   4.357   4.557 -1.1344 -0.1220  0.6036
 1434SOL    HW1 4437   2.362   4.389   4.496  0.7808 -1.1763  1.9977
 1434SOL    HW2 4438   2.305   4.262   4.555 -2.3716 -0.2697  1.1031
 1435SOL     OW 4439   3.462   4.296   2.808 -0.3855 -0.0502 -0.7431
 1435SOL    HW1 4440   3.524   4.252   2.867 -0.4849  2.6570  1.6233
 1435SOL    HW2 4441   3.512   4.368   2.770 -1.6404  1.4137  0.2303
 1436SOL     OW 4442   3.964   3.312   3.153  0.0115  0.7093  0.3409
 1436SOL    HW1 4443   3.910   3.331   3.229 -0.6365 -0.5395  0.2227
 1436SOL    HW2 4444   4.051   3.342   3.177 -0.2275  0.5239  1.4932
 1437SOL     OW 4445   2.775   3.653   1.199  0.1267  0.2029  0.6761
 1437SOL    HW1 4446   2.772   3.593   1.274  1.2951 -1.5169 -0.5718
 1437SOL    HW2 4447   2.854   3.627   1.151  0.4021  2.4550 -0.2158
 1438SOL     OW 4448   1.508   3.555   3.333  0.5789 -0.1166 -0.5574
 1438SOL    HW1 4449   1.437   3.520   3.386  0.9821 -0.7503 -0.4241
 1438SOL    HW2 4450   1.465   3.585   3.253 -0.2838  2.4083  0.7509
 1439SOL     OW 4451   4.372   1.945   1.068 -0.0856 -0.3808 -1.0332
 1439SOL    HW1 4452   4.378   2.032   1.027 -1.2527  0.3676  0.2934
 1439SOL    HW2 4453   4.343   1.887   0.998  1.4128  0.1253 -2.1266
 1440SOL     OW 4454   2.595   3.799   3.837  0.2650 -0.2272  0.0563
 1440SOL    HW1 4455   2.674   3.799   3.783  0.4856 -1.3375  0.3438
 1440SOL    HW2 4456   2.567   3.890   3.840  0.8374  0.0009 -1.0676
 1441SOL     OW 4457   0.708   0.796   0.909 -0.0126 -0.2878  0.5625
 1441SOL    HW1 4458   0.650   0.790   0.985 -0.7565 -1.2571 -0.0610
 1441SOL    HW2 4459   0.649   0.799   0.834  0.7041 -2.4352 -0.1668
 1442SOL     OW 4460   2.757   3.644   1.738 -0.1433 -0.1667 -0.2928
 1442SOL    HW1 4461   2.709   3.622   1.818  0.5737 -0.7269 -0.0060
 1442SOL    HW2 4462   2.841   3.598   1.747  0.3105  0.5195 -0.9436
 1443SOL     OW 4463   3.133   0.029   4.922  0.4829  0.4197  0.4655
 1443SOL    HW1 4464   3.039   0.032   4.940  0.1676  1.3529 -1.0862
 1443SOL    HW2 4465   3.165  -0.047   4.971 -0.9276  0.5229  1.6216
 1444SOL     OW 4466   0.213   3.035   0.456 -0.6569 -0.0213 -0.2359
 1444SOL    HW1 4467   0.273   3.067   0.389 -0.5101 -0.5537 -0.3674
 1444SOL    HW2 4468   0.235   2.942   0.465 -0.9390 -0.0458  0.2692
 1445SOL     OW 4469   1.918   4.595   4.953  0.3792 -0.8569  0.1625
 1445SOL    HW1 4470   1.860   4.563   4.884  0.8582 -0.0280 -0.6511
 1445SOL    HW2 4471   2.004   4.601   4.911  0.8015 -0.9375  1.0115
 1446SOL     OW 4472   3.966   0.174   0.713 -0.1881  0.1652 -0.4011
 1446SOL    HW1 4473   4.001   0.087   0.731 -0.4329 -0.0178 -0.8239
 1446SOL    HW2 4474   4.007   0.200   0.631 -2.6760 -0.9505 -2.1020
 1447SOL     OW 4475   1.815   4.745   0.126  0.2280  0.3991 -0.5023
 1447SOL    HW1 4476   1.876   4.817   0.140  1.3648  0.1591 -3.5142
 1447SOL    HW2 4477   1.848   4.699   0.049 -1.5589 -2.1975  0.1176
 1448SOL     OW 4478   3.286   1.880   1.445 -0.6995  0.5468 -0.4038
 1448SOL    HW1 4479   3.229   1.908   1.516 -1.4480  0.0339 -0.7910
 1448SOL    HW2 4480   3.318   1.961   1.405 -2.2163  0.8538 -1.0334
 1449SOL     OW 4481   3.800   2.789   1.181 -0.1310 -0.5056 -0.4631
 1449SOL    HW1 4482   3.729   2.786   1.116 -1.2734 -2.9631  0.7506
 1449SOL    HW2 4483   3.762   2.748   1.259  1.8136  0.5983  1.1417
 1450SOL     OW 4484   0.171   4.748   3.738  0.7697  0.7388 -0.0562
 1450SOL    HW1 4485   0.139   4.777   3.652  1.1633 -0.6720 -0.7008
 1450SOL    HW2 4486   0.259   4.715   3.721  0.2589 -1.0670  0.5776
 1451SOL     OW 4487   3.291   0.098   4.251 -0.4121 -0.2729 -0.5516
 1451SOL    HW1 4488   3.362   0.151   4.287  1.5856 -0.7621 -3.4932
 1451SOL    HW2 4489   3.256   0.150   4.179 -1.4462 -1.0797 -0.6560
 1452SOL     OW 4490   1.362   3.910   2.222 -0.0666 -0.5082 -0.2623
 1452SOL    HW1 4491   1.333   3.886   2.310 -0.1989 -0.0237 -0.1710
 1452SOL    HW2 4492   1.449   3.871   2.214  1.4199  2.2093  1.3612
 1453SOL     OW 4493   0.689  -0.015   2.811 -0.0741  0.1899  0.0735
 1453SOL    HW1 4494   0.783  -0.010   2.829  0.5964  1.4493 -3.0815
 1453SOL    HW2 4495   0.650   0.049   2.871  1.4900  1.7415 -0.4586
 1454SOL     OW 4496   3.220   0.901   3.985 -0.4572 -0.0011 -0.0702
 1454SOL    HW1 4497   3.296   0.888   3.929 -0.0104  0.9994  0.2913
 1454SOL    HW2 4498   3.250   0.876   4.072 -0.7950 -0.3733 -0.0520
 1455SOL     OW 4499   3.275   3.111   1.687 -0.3545 -0.2191 -0.2550
 1455SOL    HW1 4500   3.289   3.143   1.598 -1.3192 -0.3356 -0.4567
 1455SOL    HW2 4501   3.308   3.182   1.743  2.3430 -1.0402 -0.6485
 1456SOL     OW 4502   3.386   0.748   1.080  0.2725 -0.5051 -0.2296
 1456SOL    HW1 4503   3.365   0.725   0.990  2.6474 -0.8541 -0.7586
 1456SOL    HW2 4504   3.481   0.738   1.086  0.3438  0.8131  1.9452
 1457SOL     OW 4505   1.772   3.202   4.813 -1.2468  0.4614  0.1483
 1457SOL    HW1 4506   1.774   3.107   4.803 -1.2399  0.6103 -1.5845
 1457SOL    HW2 4507   1.845   3.221   4.872 -0.8414 -0.5542 -0.0062
 1458SOL     OW 4508   0.396   3.193   0.292  0.1369  0.2019  0.1613
 1458SOL    HW1 4509   0.349   3.155   0.217 -0.2260 -0.7072  0.8202
 1458SOL    HW2 4510   0.485   3.160   0.283  0.7126  2.0000 -1.1399
 1459SOL     OW 4511   2.325   3.036   1.431  0.0883  0.0156  0.3189
 1459SOL    HW1 4512   2.267   3.029   1.355 -0.2179  1.3853  0.3991
 1459SOL    HW2 4513   2.267   3.063   1.502  0.4223 -0.9683  0.9833
 1460SOL     OW 4514   0.456   0.954   1.589 -0.0436  0.1858 -0.3802
 1460SOL    HW1 4515   0.397   0.997   1.652  0.6892 -0.1230  0.5345
 1460SOL    HW2 4516   0.489   1.026   1.535 -1.0461  0.3971 -0.7419
 1461SOL     OW 4517   4.631   4.223   2.810 -0.0235  1.2932 -0.0297
 1461SOL    HW1 4518   4.706   4.186   2.764  0.2322  1.2469  0.4157
 1461SOL    HW2 4519   4.592   4.148   2.856 -1.1587  1.0444 -1.3392
 1462SOL     OW 4520   2.082   0.417   5.007 -0.6077 -0.6500  0.1519
 1462SOL    HW1 4521   2.046   0.377   4.928 -1.1251  2.3058 -1.2530
 1462SOL    HW2 4522   2.165   0.455   4.978 -1.3207  1.4204  0.6821
 1463SOL     OW 4523   0.168   1.703   2.783 -0.0654  0.2513  0.4243
 1463SOL    HW1 4524   0.200   1.792   2.771  1.8238 -0.2715  1.2791
 1463SOL    HW2 4525   0.193   1.658   2.702  0.2862  0.1361  0.5975
 1464SOL     OW 4526   0.559   1.912   4.606  0.1518 -0.1849 -0.1573
 1464SOL    HW1 4527   0.562   2.008   4.615 -0.4107 -0.2307  0.6349
 1464SOL    HW2 4528   0.537   1.881   4.694 -0.0435 -1.0226 -0.4993
 1465SOL     OW 4529   2.412   4.913   4.312  0.4046 -0.0622  0.0844
 1465SOL    HW1 4530   2.317   4.915   4.313  0.3053 -2.1767  0.5335
 1465SOL    HW2 4531   2.439   5.005   4.318 -1.5942  0.4591  3.2942
 1466SOL     OW 4532   1.583   3.094   2.660 -0.0483  0.0928  0.6918
 1466SOL    HW1 4533   1.585   3.017   2.603  0.2267  1.5972 -1.4692
 1466SOL    HW2 4534   1.491   3.100   2.689 -0.1291 -0.8588  0.6667
 1467SOL     OW 4535   1.944   4.861   1.310 -0.5115 -0.3618  0.0027
 1467SOL    HW1 4536   1.858   4.891   1.278 -0.3593 -0.6911 -0.7470
 1467SOL    HW2 4537   1.967   4.790   1.251  0.6159  0.2051 -0.2653
 1468SOL     OW 4538   1.655   0.556   4.207  0.0896  0.0159  0.2549
 1468SOL    HW1 4539   1.567   0.586   4.183  0.2060  1.3053  1.3426
 1468SOL    HW2 4540   1.643   0.509   4.289  0.5801  1.4967  1.2121
 1469SOL     OW 4541   2.012   3.256   4.595 -0.5589 -0.2065  0.4575
 1469SOL    HW1 4542   2.010   3.229   4.503  1.0700  2.8991 -0.6726
 1469SOL    HW2 4543   1.924   3.290   4.612 -1.0244 -1.2639  0.2609
 1470SOL     OW 4544   4.009   0.968   2.775  0.0031 -0.1298  0.2886
 1470SOL    HW1 4545   4.100   0.942   2.764 -0.7333 -3.1926  0.4624
 1470SOL    HW2 4546   4.011   1.034   2.844  2.2429  1.6285 -1.2974
 1471SOL     OW 4547   3.780   3.240   3.773  0.2428  0.0169  0.1219
 1471SOL    HW1 4548   3.708   3.215   3.831 -1.5654  0.8459 -1.6456
 1471SOL    HW2 4549   3.858   3.201   3.814 -1.4120 -2.4561  1.2007
 1472SOL     OW 4550   1.280   4.771   4.945 -0.3538 -0.2865 -0.6127
 1472SOL    HW1 4551   1.262   4.858   4.982 -3.7194 -1.2079  0.3029
 1472SOL    HW2 4552   1.200   4.749   4.898  0.5314 -2.7848 -1.0564
 1473SOL     OW 4553   0.609   3.320   2.711  0.1712 -0.6305 -0.1612
 1473SOL    HW1 4554   0.623   3.329   2.805 -0.7802  0.9030 -0.1323
 1473SOL    HW2 4555   0.531   3.372   2.693  0.9912  0.0575 -1.9812
 1474SOL     OW 4556   3.010   3.029   1.673  0.5157  0.1482 -0.1776
 1474SOL    HW1 4557   2.962   3.022   1.756 -1.1098  1.6039 -0.9126
 1474SOL    HW2 4558   3.097   3.061   1.698  0.0238  0.6356  0.9828
 1475SOL     OW 4559   1.180   4.875   0.863  0.0047 -0.1413 -0.5661
 1475SOL    HW1 4560   1.147   4.915   0.783  0.9621 -0.4720 -1.1481
 1475SOL    HW2 4561   1.273   4.860   0.846  0.2533 -0.1162  0.6533
 1476SOL     OW 4562   1.529   0.358   4.975 -0.4701  0.1800 -0.3565
 1476SOL    HW1 4563   1.465   0.426   4.995  1.8048  2.8616 -1.5558
 1476SOL    HW2 4564   1.533   0.355   4.880  0.1739 -1.0072 -0.3175
 1477SOL     OW 4565   4.080   4.260   4.974 -0.2077  0.4460  0.6885
 1477SOL    HW1 4566   4.079   4.342   5.023 -0.5546 -0.0982  1.6204
 1477SOL    HW2 4567   4.001   4.262   4.921  0.2598  1.1205  0.0071
 1478SOL     OW 4568   0.431   1.431   4.317  0.5377  0.2171 -0.1117
 1478SOL    HW1 4569   0.489   1.420   4.392  0.8661 -1.0727 -0.5266
 1478SOL    HW2 4570   0.426   1.526   4.304  3.0669  0.3783 -0.4458
 1479SOL     OW 4571   2.489   4.760   3.785  0.2218  0.4118  1.0551
 1479SOL    HW1 4572   2.523   4.679   3.746 -1.6595 -0.2670  0.7014
 1479SOL    HW2 4573   2.432   4.730   3.856 -0.3948  1.4162  1.0058
 1480SOL     OW 4574   3.138   0.142   2.941 -0.5802  0.2430  0.0371
 1480SOL    HW1 4575   3.055   0.104   2.969  0.0472 -0.2354  1.3184
 1480SOL    HW2 4576   3.169   0.084   2.871 -1.2074  0.3137 -0.3099
 1481SOL     OW 4577   1.004   2.870   1.423  0.2807  0.0740  0.5925
 1481SOL    HW1 4578   1.065   2.939   1.398  0.9657 -1.2408 -1.7033
 1481SOL    HW2 4579   0.959   2.847   1.342 -0.1532 -1.9361  1.3323
 1482SOL     OW 4580   2.306   2.903   0.411 -0.1558 -0.5182 -0.6231
 1482SOL    HW1 4581   2.261   2.952   0.342  0.0685  1.4649  0.5794
 1482SOL    HW2 4582   2.239   2.887   0.477  0.6872  2.0436  0.9655
 1483SOL     OW 4583   2.579   2.388   1.735 -0.2496  0.6222 -0.2236
 1483SOL    HW1 4584   2.596   2.319   1.800 -2.8535 -0.4122 -0.5285
 1483SOL    HW2 4585   2.587   2.343   1.651 -0.0767  1.1802 -0.5047
 1484SOL     OW 4586   2.527   4.071   0.982  0.0090 -0.5056  0.1932
 1484SOL    HW1 4587   2.519   4.055   1.076 -0.3656 -1.8551 -0.0520
 1484SOL    HW2 4588   2.440   4.055   0.947  0.1712 -0.1107 -0.4070
 1485SOL     OW 4589   0.478   2.999   3.276 -0.0359  0.6008  1.3925
 1485SOL    HW1 4590   0.572   3.014   3.291 -0.0697 -0.6229  3.2282
 1485SOL    HW2 4591   0.475   2.938   3.202  0.4707  2.2839 -0.0849
 1486SOL     OW 4592   1.661   4.952   3.412  0.0578  0.3301  0.1660
 1486SOL    HW1 4593   1.618   4.980   3.331  1.5133  2.0543 -0.0722
 1486SOL    HW2 4594   1.603   4.885   3.448 -2.1524  1.6267 -0.7779
 1487SOL     OW 4595   0.852   2.996   2.227 -0.1031 -0.1362 -0.6231
 1487SOL    HW1 4596   0.860   2.945   2.146 -0.2748  0.4467 -1.0154
 1487SOL    HW2 4597   0.901   3.076   2.209 -2.2195  1.1373 -1.1031
 1488SOL     OW 4598   0.473   0.621   1.425 -0.1004 -0.4038 -0.0837
 1488SOL    HW1 4599   0.430   0.618   1.510  1.0626 -0.5837  0.5232
 1488SOL    HW2 4600   0.497   0.530   1.406  3.6422  0.0702  1.5774
 1489SOL     OW 4601   2.568   0.929   4.342  0.4812  0.8007 -0.6139
 1489SOL    HW1 4602   2.624   0.898   4.413  0.3890 -2.4654 -1.7960
 1489SOL    HW2 4603   2.482   0.942   4.382  0.5023 -0.7131 -0.0429
 1490SOL     OW 4604   3.812   3.146   2.381 -0.1317 -0.1492 -0.2384
 1490SOL    HW1 4605   3.881   3.107   2.436 -0.1919 -2.3286 -1.6014
 1490SOL    HW2 4606   3.859   3.183   2.307 -0.2787  0.1154 -0.1990
 1491SOL     OW 4607   1.532   3.009   4.744  0.1759 -0.3988  0.4237
 1491SOL    HW1 4608   1.560   2.948   4.812  0.3501 -0.6709  0.1057
 1491SOL    HW2 4609   1.488   2.955   4.679 -1.6668  0.0915  1.2102
 1492SOL     OW 4610   2.120   2.618   2.141 -0.7602 -0.3651 -0.4725
 1492SOL    HW1 4611   2.154   2.641   2.055  0.5609  0.0411  0.1287
 1492SOL    HW2 4612   2.147   2.691   2.198 -0.3198 -1.3158  0.5816
 1493SOL     OW 4613   1.420   1.590   2.718  0.3577  0.2104  0.4122
 1493SOL    HW1 4614   1.487   1.594   2.650  2.0112 -0.1128  1.9399
 1493SOL    HW2 4615   1.378   1.676   2.716  0.6723  0.3502 -0.7090
 1494SOL     OW 4616   2.959   0.796   3.833 -0.0131  0.2695  0.4066
 1494SOL    HW1 4617   3.041   0.761   3.798  0.6409  0.0673  2.0523
 1494SOL    HW2 4618   2.955   0.886   3.801  0.2921 -0.0625 -0.5922
 1495SOL     OW 4619   3.050   4.312   3.680 -0.5057 -0.0994 -0.4158
 1495SOL    HW1 4620   2.993   4.385   3.655 -2.8375 -1.7570 -0.3555
 1495SOL    HW2 4621   3.074   4.331   3.771  1.6058  2.1019 -1.3290
 1496SOL     OW 4622   1.039   0.572   4.594 -0.7069  0.4276  0.0142
 1496SOL    HW1 4623   0.947   0.578   4.618 -1.1762 -1.6220 -1.0705
 1496SOL    HW2 4624   1.040   0.516   4.517  1.4040  1.0075 -0.4419
 1497SOL     OW 4625   3.450   4.100   4.592  0.2733  0.0275  0.2405
 1497SOL    HW1 4626   3.378   4.097   4.655 -0.7422  1.7135 -0.7881
 1497SOL    HW2 4627   3.526   4.125   4.643 -0.3336  0.4124  0.9659
 1498SOL     OW 4628   2.646   0.317   4.120 -0.2064  0.0352 -0.2823
 1498SOL    HW1 4629   2.621   0.329   4.028 -1.1200  0.3701 -0.0020
 1498SOL    HW2 4630   2.606   0.234   4.145  0.7143 -0.4585 -0.4003
 1499SOL     OW 4631   2.329   3.529   3.374 -0.2048  0.0563 -0.3241
 1499SOL    HW1 4632   2.347   3.471   3.449  1.2050  1.7869  0.7785
 1499SOL    HW2 4633   2.387   3.497   3.305 -0.2541 -0.5189 -0.1058
 1500SOL     OW 4634   1.905   1.432   0.966  0.1929 -0.2689 -0.2977
 1500SOL    HW1 4635   1.975   1.496   0.952  1.8224 -2.1471 -1.2211
 1500SOL    HW2 4636   1.929   1.387   1.046  1.0537 -2.0982 -1.5258
 1501SOL     OW 4637   3.729   2.484   4.022  0.2696  0.7727 -0.4065
 1501SOL    HW1 4638   3.759   2.405   3.977  1.0466  0.4987  0.5654
 1501SOL    HW2 4639   3.635   2.472   4.033  0.7184 -1.1957  1.9422
 1502SOL     OW 4640   4.891   4.749   3.055 -0.2449 -0.3594 -0.0737
 1502SOL    HW1 4641   4.933   4.664   3.071  2.1496  0.6503 -0.6278
 1502SOL    HW2 4642   4.834   4.733   2.980 -0.6855 -1.7105  0.5072
 1503SOL     OW 4643   3.268   3.931   3.415 -0.0298  0.1590  0.1207
 1503SOL    HW1 4644   3.277   3.853   3.360  0.7985  0.9692 -0.9458
 1503SOL    HW2 4645   3.219   3.992   3.362 -0.1100  0.6000  0.6920
 1504SOL     OW 4646   4.075   0.099   2.925 -0.2712  0.8635 -0.0643
 1504SOL    HW1 4647   4.131   0.026   2.901 -4.0711 -2.5332  0.2844
 1504SOL    HW2 4648   4.112   0.132   3.007  1.0524 -1.3435  0.2948
 1505SOL     OW 4649   1.095   3.843   2.178 -0.3193  0.0482  0.4097
 1505SOL    HW1 4650   1.088   3.802   2.092 -0.5948  0.1911  0.3621
 1505SOL    HW2 4651   1.169   3.903   2.172 -0.0863 -0.2381  0.3955
 1506SOL     OW 4652   3.166   4.122   0.447  0.4992 -0.8035  0.0835
 1506SOL    HW1 4653   3.092   4.067   0.470  0.6522 -0.7209  0.7750
 1506SOL    HW2 4654   3.231   4.061   0.412  0.3067 -0.9344 -0.0503
 1507SOL     OW 4655   3.178   3.696   1.466 -0.0331  0.7188 -0.3647
 1507SOL    HW1 4656   3.221   3.704   1.551  2.6793 -1.4869 -1.3689
 1507SOL    HW2 4657   3.248   3.714   1.402 -0.6253 -2.3690 -2.1085
 1508SOL     OW 4658   1.301   0.749   2.240  0.0904  0.1009 -0.0391
 1508SOL    HW1 4659   1.260   0.745   2.154 -1.3999 -0.0503  0.6309
 1508SOL    HW2 4660   1.320   0.841   2.254 -0.3501  0.2236 -0.2333
 1509SOL     OW 4661   0.482   1.411   1.550 -0.0879  0.3919 -0.6425
 1509SOL    HW1 4662   0.576   1.430   1.551  0.0746 -0.3705 -1.2747
 1509SOL    HW2 4663   0.442   1.491   1.517  0.3119  0.8243 -0.0968
 1510SOL     OW 4664   2.609   4.670   2.986 -0.1497 -0.5535 -0.1496
 1510SOL    HW1 4665   2.585   4.580   2.962  0.4035 -0.3237 -1.7176
 1510SOL    HW2 4666   2.640   4.663   3.076  1.0378 -2.1802 -0.6267
 1511SOL     OW 4667   0.557   0.632   4.172 -0.3812  0.0623 -0.1274
 1511SOL    HW1 4668   0.607   0.628   4.254  2.0310  2.2562 -1.3525
 1511SOL    HW2 4669   0.534   0.541   4.154  0.4810 -0.6797  2.1118
 1512SOL     OW 4670   3.644   1.788   4.872 -0.0527 -0.3657  0.2568
 1512SOL    HW1 4671   3.715   1.758   4.928  0.1835 -1.6191 -0.6444
 1512SOL    HW2 4672   3.564   1.768   4.921  0.1219 -2.1060 -0.0944
 1513SOL     OW 4673   3.488   1.761   3.924  0.3957  0.4529  0.0657
 1513SOL    HW1 4674   3.533   1.805   3.852  3.4940 -2.7011 -0.1669
 1513SOL    HW2 4675   3.404   1.733   3.887 -0.4200  3.3295 -0.5890
 1514SOL     OW 4676   2.999   1.731   3.149  0.1110  0.0928 -0.2604
 1514SOL    HW1 4677   2.933   1.683   3.098  0.2975  0.2034 -0.6095
 1514SOL    HW2 4678   3.043   1.786   3.084  2.4271 -1.9761 -0.6070
 1515SOL     OW 4679   1.662   0.917   2.518 -0.1293 -0.1910 -0.4454
 1515SOL    HW1 4680   1.725   0.892   2.586 -2.2526  0.8751  2.1265
 1515SOL    HW2 4681   1.678   0.857   2.446  1.5872 -2.1278  1.4304
 1516SOL     OW 4682   1.946   4.719   4.102 -0.1431 -0.3989 -0.4457
 1516SOL    HW1 4683   1.855   4.714   4.130 -0.2298 -1.4477 -0.8919
 1516SOL    HW2 4684   1.943   4.772   4.021 -0.6379 -2.0513 -1.5571
 1517SOL     OW 4685   3.002   3.843   1.261 -0.1443 -0.1525 -0.5702
 1517SOL    HW1 4686   3.010   3.757   1.219  1.3459  0.4371 -1.5813
 1517SOL    HW2 4687   3.022   3.826   1.353 -1.1732 -1.0833 -0.4857
 1518SOL     OW 4688   0.467   4.812   1.391  0.4449  0.1584 -0.2208
 1518SOL    HW1 4689   0.469   4.717   1.390 -0.2599  0.1359 -0.0892
 1518SOL    HW2 4690   0.487   4.838   1.301 -0.4558 -0.1522 -0.5234
 1519SOL     OW 4691   4.233   4.175   2.770  0.2745  0.8626  0.5851
 1519SOL    HW1 4692   4.264   4.184   2.860  0.6233  2.6258  0.3213
 1519SOL    HW2 4693   4.263   4.088   2.743  0.3294  0.3867  2.0883
 1520SOL     OW 4694   2.863   4.602   2.725  0.1033  0.2816 -0.6891
 1520SOL    HW1 4695   2.930   4.546   2.687 -0.2476  0.2393 -1.2609
 1520SOL    HW2 4696   2.876   4.687   2.683 -0.5538  0.1239 -1.2475
 1521SOL     OW 4697   0.005   2.093   3.587 -0.6365 -0.0548 -0.1382
 1521SOL    HW1 4698   0.053   2.063   3.510  1.9480  1.1290  0.9033
 1521SOL    HW2 4699   0.031   2.185   3.598 -3.6247  0.8632  0.2203
 1522SOL     OW 4700   2.808   2.488   0.271  0.2885  0.4704 -0.0458
 1522SOL    HW1 4701   2.716   2.493   0.297  0.6999 -0.3800  1.7768
 1522SOL    HW2 4702   2.825   2.571   0.226 -1.3385  0.6613 -0.3745
 1523SOL     OW 4703   4.578   3.453   3.207  0.5191  0.3696 -0.1743
 1523SOL    HW1 4704   4.624   3.385   3.158  0.2103  0.5258 -0.6904
 1523SOL    HW2 4705   4.512   3.407   3.258 -1.2532  0.4305 -2.2532
 1524SOL     OW 4706   1.029   2.467   4.256 -0.1548 -0.0909 -0.0586
 1524SOL    HW1 4707   1.024   2.538   4.192 -0.1709 -2.1231 -2.4879
 1524SOL    HW2 4708   1.123   2.453   4.269 -0.1121  1.6245  2.0561
 1525SOL     OW 4709   4.432   2.919   0.087  0.2896 -0.1437 -0.0267
 1525SOL    HW1 4710   4.452   2.853   0.021  0.3890 -1.5198  1.3096
 1525SOL    HW2 4711   4.503   2.911   0.151  0.0176  0.8920  0.4239
 1526SOL     OW 4712   1.942   0.107   2.077 -0.4096 -0.1002  0.2228
 1526SOL    HW1 4713   1.938   0.103   1.981  0.2582  0.7404  0.1482
 1526SOL    HW2 4714   1.943   0.015   2.105  0.2511 -0.3620 -0.6204
 1527SOL     OW 4715   0.637   0.652   2.319  0.6711 -0.6307  0.5731
 1527SOL    HW1 4716   0.646   0.570   2.271  0.6227 -0.9731  1.1427
 1527SOL    HW2 4717   0.615   0.717   2.252 -1.6350 -1.5033  0.3972
 1528SOL     OW 4718   0.542   2.288   4.498 -0.2148 -0.5309 -0.0454
 1528SOL    HW1 4719   0.506   2.376   4.509  1.2766 -0.0167  1.1211
 1528SOL    HW2 4720   0.566   2.284   4.406  1.0088  0.8623  0.1634
 1529SOL     OW 4721   2.325   0.535   2.733 -0.0148 -0.2592  0.1143
 1529SOL    HW1 4722   2.334   0.443   2.755  0.6812 -0.4987 -1.1372
 1529SOL    HW2 4723   2.237   0.558   2.763 -0.2072 -1.3271  0.3946
 1530SOL     OW 4724   2.734   4.890   3.996 -0.2760 -0.2077  0.3376
 1530SOL    HW1 4725   2.801   4.924   3.936 -1.5573  0.9072 -0.5465
 1530SOL    HW2 4726   2.709   4.806   3.959 -0.0237 -0.1934  0.1307
 1531SOL     OW 4727   3.355   3.050   3.995  0.1366 -0.1177  0.2848
 1531SOL    HW1 4728   3.337   2.967   3.951  1.4313 -0.2772  0.0051
 1531SOL    HW2 4729   3.269   3.091   4.007 -0.2725  0.1923 -2.8772
 1532SOL     OW 4730   4.058   0.214   0.279 -0.2595 -0.1423 -0.1920
 1532SOL    HW1 4731   4.086   0.304   0.298 -1.2791  0.3237 -0.8022
 1532SOL    HW2 4732   3.967   0.211   0.307 -0.0947 -1.1506  0.2836
 1533SOL     OW 4733   3.291   0.387   2.942 -0.1937  0.2733 -0.2584
 1533SOL    HW1 4734   3.283   0.292   2.946  3.0510 -0.2139 -1.9614
 1533SOL    HW2 4735   3.311   0.406   2.850  0.4069  2.4544  0.2560
 1534SOL     OW 4736   2.517   4.047   2.887  0.1377  0.7754  0.1702
 1534SOL    HW1 4737   2.510   3.981   2.956  1.5952  0.7971  0.3634
 1534SOL    HW2 4738   2.598   4.094   2.906  0.9207  0.3678 -1.9266
 1535SOL     OW 4739   2.149   2.448   0.177 -0.0023  0.0460  0.0050
 1535SOL    HW1 4740   2.077   2.418   0.233  0.7551  1.0345  1.5443
 1535SOL    HW2 4741   2.222   2.460   0.236  1.3195 -0.4374 -1.4643
 1536SOL     OW 4742   4.633   3.541   4.448  0.1041 -0.5396 -0.5553
 1536SOL    HW1 4743   4.552   3.490   4.453 -2.0248  2.7064  1.4135
 1536SOL    HW2 4744   4.610   3.617   4.394  1.7176  0.6548  0.3616
 1537SOL     OW 4745   1.733   2.221   4.298  0.5883  0.0724  0.5684
 1537SOL    HW1 4746   1.658   2.173   4.263 -0.2031  0.9509  0.9924
 1537SOL    HW2 4747   1.804   2.203   4.237  1.1660 -3.8269  2.1116
 1538SOL     OW 4748   3.548   4.396   0.469 -0.4339 -0.0385 -0.1107
 1538SOL    HW1 4749   3.599   4.383   0.549  1.8676  2.7257 -0.9924
 1538SOL    HW2 4750   3.591   4.340   0.404  0.8510  1.4049 -0.5584
 1539SOL     OW 4751   3.204   0.405   4.759  0.3482  0.4411  0.2896
 1539SOL    HW1 4752   3.154   0.462   4.817 -0.1378  0.2378  0.0702
 1539SOL    HW2 4753   3.287   0.451   4.746  0.1473  0.8662  0.5032
 1540SOL     OW 4754   0.602   0.025   4.356  0.1756 -0.1802 -0.1210
 1540SOL    HW1 4755   0.661   0.099   4.337 -0.9705  0.6469 -0.5671
 1540SOL    HW2 4756   0.541   0.023   4.283  1.2174 -2.7067 -1.0232
 1541SOL     OW 4757   1.151   1.795   1.069 -0.2080 -0.1240  0.2593
 1541SOL    HW1 4758   1.147   1.714   1.119  2.3615 -0.2895  0.3282
 1541SOL    HW2 4759   1.096   1.780   0.993 -0.7128 -1.4774  0.8714
 1542SOL     OW 4760   3.915   0.819   1.835  0.5417  0.2658 -0.2301
 1542SOL    HW1 4761   3.853   0.875   1.787 -1.3211  0.1702  1.8779
 1542SOL    HW2 4762   3.962   0.771   1.767 -1.4751  0.6041 -1.9791
 1543SOL     OW 4763   0.140   1.471   4.904 -0.2490  0.6750  0.5001
 1543SOL    HW1 4764   0.078   1.543   4.904 -1.4927 -0.3595 -0.0272
 1543SOL    HW2 4765   0.221   1.509   4.938 -1.8766  1.4357  3.9661
 1544SOL     OW 4766   3.295   2.114   2.986 -0.0210 -0.0147  0.3433
 1544SOL    HW1 4767   3.344   2.176   2.932  0.6083 -0.0245  0.8721
 1544SOL    HW2 4768   3.359   2.086   3.052 -0.4968 -0.7083  0.5181
 1545SOL     OW 4769   2.373   2.565   1.704 -0.3053  0.7369  0.0779
 1545SOL    HW1 4770   2.459   2.524   1.716 -1.2582 -1.4508 -0.0656
 1545SOL    HW2 4771   2.320   2.529   1.775 -1.1182  2.0844  0.1768
 1546SOL     OW 4772   1.728   4.571   1.705 -0.3679  0.3520 -0.2481
 1546SOL    HW1 4773   1.816   4.585   1.670 -0.6061  1.9145 -0.3178
 1546SOL    HW2 4774   1.738   4.586   1.799 -0.1821 -1.5199  0.0583
 1547SOL     OW 4775   4.109   3.557   2.908 -0.2772 -0.3867  0.9102
 1547SOL    HW1 4776   4.017   3.533   2.916  0.1072 -1.9058  1.0695
 1547SOL    HW2 4777   4.109   3.632   2.848 -1.4787 -1.4682 -0.5214
 1548SOL     OW 4778   4.168   2.689   1.563  0.0300  0.7813 -0.2654
 1548SOL    HW1 4779   4.110   2.728   1.498 -0.9748 -1.3458 -0.7209
 1548SOL    HW2 4780   4.249   2.671   1.515 -0.6225 -0.5520 -0.9339
 1549SOL     OW 4781   2.170   2.816   4.600 -0.7438  0.4795  0.3032
 1549SOL    HW1 4782   2.126   2.900   4.616  0.8301  1.4250 -0.1060
 1549SOL    HW2 4783   2.183   2.778   4.687 -0.0505  1.4328  0.6340
 1550SOL     OW 4784   4.522   4.189   0.305  0.4201 -0.1078 -0.0882
 1550SOL    HW1 4785   4.549   4.098   0.320  0.2820 -0.1456 -0.0635
 1550SOL    HW2 4786   4.433   4.193   0.339 -0.8070 -0.7903 -2.9230
 1551SOL     OW 4787   2.738   0.176   0.348  0.1297 -0.5348  0.4329
 1551SOL    HW1 4788   2.646   0.176   0.322  0.0560 -0.6743  0.6929
 1551SOL    HW2 4789   2.768   0.264   0.326 -0.2015 -0.3232  0.8188
 1552SOL     OW 4790   2.907   4.128   0.048  0.2966  0.0408 -0.3403
 1552SOL    HW1 4791   2.932   4.040   0.076 -0.3739  0.1106  0.5440
 1552SOL    HW2 4792   2.822   4.143   0.090  1.3138  1.8936  1.2604
 1553SOL     OW 4793   3.190   4.680   2.845  0.5292 -0.2109  0.2775
 1553SOL    HW1 4794   3.095   4.682   2.843  0.4483 -0.6762  2.1305
 1553SOL    HW2 4795   3.216   4.673   2.753 -1.0866  3.3694 -0.6259
 1554SOL     OW 4796   3.539   2.870   2.761  1.0773  0.1956  0.1653
 1554SOL    HW1 4797   3.634   2.880   2.758  1.1262  0.0265 -3.5913
 1554SOL    HW2 4798   3.521   2.797   2.702 -1.4478  1.0190 -0.1916
 1555SOL     OW 4799   3.032   0.495   2.942 -0.6691 -0.5177  0.4438
 1555SOL    HW1 4800   3.000   0.491   2.852 -0.0106 -0.9443  0.2179
 1555SOL    HW2 4801   3.117   0.450   2.939 -0.6813 -0.6149  1.2944
 1556SOL     OW 4802   3.806   2.996   4.120  0.0924  0.2645 -0.9640
 1556SOL    HW1 4803   3.737   3.003   4.053 -0.4290  1.7663 -0.3120
 1556SOL    HW2 4804   3.881   3.040   4.081  0.4868 -0.7588 -1.3945
 1557SOL     OW 4805   4.117   0.234   0.029  0.3328  0.6512  0.1335
 1557SOL    HW1 4806   4.069   0.237   0.112 -1.1387 -1.7326 -0.5222
 1557SOL    HW2 4807   4.075   0.163  -0.020  4.5797 -1.7184 -0.5065
 1558SOL     OW 4808   4.010   2.975   2.739 -0.3976 -0.1551 -0.3642
 1558SOL    HW1 4809   4.020   2.997   2.831  0.4813  0.9062 -0.6912
 1558SOL    HW2 4810   3.925   2.929   2.734 -1.0159  0.8111  0.7768
 1559SOL     OW 4811   3.837   1.033   3.848 -0.1007  0.5571 -0.1133
 1559SOL    HW1 4812   3.811   1.112   3.800 -0.0031 -0.0833 -1.2659
 1559SOL    HW2 4813   3.880   1.065   3.926  1.3694  1.6845 -1.3221
 1560SOL     OW 4814   1.470   3.404   4.076  0.0320 -0.0551  0.7549
 1560SOL    HW1 4815   1.407   3.422   4.007  1.6539  1.2003 -0.4736
 1560SOL    HW2 4816   1.507   3.319   4.053  0.4032  0.2553  0.1759
 1561SOL     OW 4817   4.706   4.315   0.444  0.1434  0.2534 -0.1080
 1561SOL    HW1 4818   4.647   4.283   0.377 -0.5664 -1.7579  1.3869
 1561SOL    HW2 4819   4.652   4.372   0.499  0.4780  1.1028 -0.6337
 1562SOL     OW 4820   4.969   3.268   2.001 -0.8114 -0.0928  0.2998
 1562SOL    HW1 4821   4.980   3.180   1.967  1.4180 -0.1490  1.0103
 1562SOL    HW2 4822   5.003   3.264   2.091 -0.3934  1.5367  0.2484
 1563SOL     OW 4823   2.625   3.531   2.569  0.1709  0.1260  0.0544
 1563SOL    HW1 4824   2.616   3.579   2.652 -0.9871  0.9854 -0.5334
 1563SOL    HW2 4825   2.713   3.494   2.572  0.9798  1.9887  0.7170
 1564SOL     OW 4826   3.641   3.369   1.527 -0.1010  0.7693 -0.1439
 1564SOL    HW1 4827   3.573   3.370   1.460 -1.3412  0.8943  1.0764
 1564SOL    HW2 4828   3.633   3.283   1.568  0.0082  1.0459  0.4712
 1565SOL     OW 4829   2.907   2.896   4.740 -0.2559  0.6415 -0.5079
 1565SOL    HW1 4830   2.876   2.904   4.830  0.4875  1.1620 -0.2825
 1565SOL    HW2 4831   2.927   2.803   4.729 -2.4178  0.1644 -0.8661
 1566SOL     OW 4832   1.877   2.649   4.704  0.2856  0.3657  0.3584
 1566SOL    HW1 4833   1.937   2.575   4.713 -0.8828 -0.7009 -0.3767
 1566SOL    HW2 4834   1.795   2.618   4.743  0.0772  1.6663  1.0063
 1567SOL     OW 4835   1.499   4.109   1.916 -0.4777 -0.4656  0.2222
 1567SOL    HW1 4836   1.506   4.041   1.850  1.1599 -0.5582  0.4532
 1567SOL    HW2 4837   1.433   4.077   1.978  0.6211 -2.0845  0.5982
 1568SOL     OW 4838   0.264   1.106   4.076  0.1658  0.2482 -0.0242
 1568SOL    HW1 4839   0.261   1.029   4.019 -2.1730  2.6779 -3.5962
 1568SOL    HW2 4840   0.190   1.094   4.136  0.2116 -0.5341 -0.1095
 1569SOL     OW 4841   2.385   1.879   1.767 -0.0326  0.1636 -0.3128
 1569SOL    HW1 4842   2.365   1.928   1.846  0.4592 -0.1030 -0.0221
 1569SOL    HW2 4843   2.361   1.938   1.695 -0.6325  0.3437  0.0277
 1570SOL     OW 4844   1.864   4.474   0.731  0.0049 -0.4467  0.3056
 1570SOL    HW1 4845   1.915   4.413   0.677  0.5666  0.4162 -0.1656
 1570SOL    HW2 4846   1.882   4.447   0.821 -0.4324 -1.5033  0.0998
 1571SOL     OW 4847   1.576   3.002   2.196  0.2748 -0.6795  0.3095
 1571SOL    HW1 4848   1.576   3.048   2.113  0.3380  3.5078  2.3778
 1571SOL    HW2 4849   1.667   2.975   2.208  0.1524 -1.8926 -1.1358
 1572SOL     OW 4850   3.757   1.260   3.423  0.1604  0.1614 -0.2948
 1572SOL    HW1 4851   3.674   1.259   3.376  0.3251 -0.3183 -0.5796
 1572SOL    HW2 4852   3.821   1.295   3.361  0.0216  1.3137  0.1906
 1573SOL     OW 4853   1.994   4.603   1.771  0.8355  0.5229  0.5042
 1573SOL    HW1 4854   2.054   4.547   1.724 -2.2799 -1.1616 -1.8405
 1573SOL    HW2 4855   1.975   4.556   1.852  2.2596  0.8959  1.0904
 1574SOL     OW 4856   0.596   4.944   2.565  0.1184  0.1061 -0.2659
 1574SOL    HW1 4857   0.628   4.958   2.653 -1.6571  0.2255  0.4100
 1574SOL    HW2 4858   0.530   5.012   2.552 -2.7544 -2.4022 -0.0142
 1575SOL     OW 4859   2.409   2.449   4.467  0.2539 -0.0476 -0.3369
 1575SOL    HW1 4860   2.397   2.391   4.391  0.9092 -1.2487  0.4368
 1575SOL    HW2 4861   2.349   2.521   4.452 -0.7217 -1.0131 -1.2670
 1576SOL     OW 4862   4.149   2.455   1.746 -0.3077 -0.8060 -0.5281
 1576SOL    HW1 4863   4.074   2.480   1.799  1.0859  1.4802  0.5176
 1576SOL    HW2 4864   4.155   2.523   1.679  1.6317 -0.0637  0.3107
 1577SOL     OW 4865   4.805   0.329   0.128 -0.2736 -0.3994  0.0773
 1577SOL    HW1 4866   4.719   0.320   0.169  0.8573 -0.5133  2.6192
 1577SOL    HW2 4867   4.861   0.266   0.175  1.3152  0.0316 -1.1454
 1578SOL     OW 4868   0.574   2.684   0.046  0.8190  0.0355 -0.2184
 1578SOL    HW1 4869   0.589   2.660  -0.046  1.0697 -1.1760  0.1133
 1578SOL    HW2 4870   0.553   2.601   0.089  2.9996  0.1526  1.2742
 1579SOL     OW 4871   4.312   2.048   3.840  0.1972  0.2852  0.1002
 1579SOL    HW1 4872   4.277   1.960   3.824 -0.4800  0.5401  0.1788
 1579SOL    HW2 4873   4.401   2.033   3.871  0.9625 -0.3126 -2.1609
 1580SOL     OW 4874   3.162   0.160   3.872  0.0231 -0.4755  0.5273
 1580SOL    HW1 4875   3.157   0.235   3.813 -1.1047 -0.0533  1.1251
 1580SOL    HW2 4876   3.255   0.146   3.887  0.2986 -0.1713 -0.8101
 1581SOL     OW 4877   0.623   3.992   1.910  0.4270 -0.1111  0.0549
 1581SOL    HW1 4878   0.639   4.082   1.935 -0.3355 -0.1527  0.7461
 1581SOL    HW2 4879   0.709   3.957   1.885  1.1918  0.0338  2.3207
 1582SOL     OW 4880   2.810   0.597   4.847 -0.0895 -0.4348  0.1382
 1582SOL    HW1 4881   2.859   0.675   4.820  1.4095 -1.1043  0.8269
 1582SOL    HW2 4882   2.736   0.594   4.786  0.8837  0.4407 -1.1558
 1583SOL     OW 4883   3.417   1.309   1.847  0.0861 -0.0383 -0.5622
 1583SOL    HW1 4884   3.328   1.278   1.861 -0.0408  0.5120 -0.1110
 1583SOL    HW2 4885   3.407   1.392   1.801  0.2818  0.7778  0.8085
 1584SOL     OW 4886   4.767   2.766   4.813 -0.8066 -0.0055 -0.7185
 1584SOL    HW1 4887   4.834   2.765   4.881 -1.1478 -2.1756 -0.3236
 1584SOL    HW2 4888   4.701   2.828   4.844 -0.0230  0.4948 -0.0373
 1585SOL     OW 4889   1.602   4.004   0.020 -0.2563 -1.1529 -0.5642
 1585SOL    HW1 4890   1.548   3.931   0.051  1.4764 -2.3204 -0.1646
 1585SOL    HW2 4891   1.612   4.060   0.097 -1.6837 -0.3702 -0.9010
 1586SOL     OW 4892   2.669   0.629   0.504 -0.2179  0.4155 -0.7023
 1586SOL    HW1 4893   2.641   0.579   0.581 -1.1947  0.2259 -1.1679
 1586SOL    HW2 4894   2.606   0.701   0.498  0.4876  1.0548 -0.7207
 1587SOL     OW 4895   3.560   4.172   3.374  0.2165  0.1010  0.0060
 1587SOL    HW1 4896   3.554   4.142   3.465  1.6381 -3.0028 -0.7791
 1587SOL    HW2 4897   3.469   4.186   3.347 -0.5286 -2.3854  0.9458
 1588SOL     OW 4898   3.399   4.733   4.707 -0.0243  0.3179  0.6545
 1588SOL    HW1 4899   3.304   4.737   4.718 -0.0758  1.5495 -0.0382
 1588SOL    HW2 4900   3.430   4.689   4.785 -1.2643 -1.2622  0.3134
 1589SOL     OW 4901   3.366   4.531   2.986  0.0567  0.4474  0.1620
 1589SOL    HW1 4902   3.395   4.444   2.959  0.4367  0.2200  1.2255
 1589SOL    HW2 4903   3.351   4.578   2.905  1.8066  0.0361 -0.4423
 1590SOL     OW 4904   1.553   0.277   0.257 -0.6516 -0.1568  0.0134
 1590SOL    HW1 4905   1.639   0.257   0.219 -0.4609  0.3128  0.1900
 1590SOL    HW2 4906   1.566   0.360   0.303 -1.1934 -0.1028  0.0735
 1591SOL     OW 4907   0.237   4.810   0.737 -0.1045 -0.1608  0.3527
 1591SOL    HW1 4908   0.240   4.863   0.657 -0.5424 -1.2572 -0.4139
 1591SOL    HW2 4909   0.147   4.820   0.769 -0.2936 -0.7315  0.0021
 1592SOL     OW 4910   2.185   3.044   1.698 -0.0190 -0.1296 -0.2149
 1592SOL    HW1 4911   2.095   3.075   1.688 -0.8042 -1.8219  1.0698
 1592SOL    HW2 4912   2.182   2.952   1.670  0.3821 -1.3300  3.2237
 1593SOL     OW 4913   3.449   0.526   4.814 -0.4376 -0.1908 -0.2068
 1593SOL    HW1 4914   3.421   0.616   4.796  0.3922  0.2670  0.6914
 1593SOL    HW2 4915   3.523   0.536   4.873 -1.0485 -1.5072  0.8308
 1594SOL     OW 4916   2.395   3.252   4.626 -0.0548 -0.1298 -0.8012
 1594SOL    HW1 4917   2.355   3.172   4.592 -1.4593  0.0162  0.3831
 1594SOL    HW2 4918   2.390   3.241   4.721  3.1546 -0.2662 -0.5397
 1595SOL     OW 4919   2.747   3.412   1.930 -0.1580 -0.2415 -0.0603
 1595SOL    HW1 4920   2.841   3.416   1.949  0.0111  1.0491 -1.0422
 1595SOL    HW2 4921   2.705   3.455   2.005  0.1965  1.0472 -0.5854
 1596SOL     OW 4922   3.489   1.633   2.099 -0.1213  0.6636 -0.1863
 1596SOL    HW1 4923   3.551   1.589   2.041  0.5003  1.4902 -0.1665
 1596SOL    HW2 4924   3.544   1.683   2.159 -0.7918  0.7794  0.3399
 1597SOL     OW 4925   0.413   3.170   1.097 -0.0857  0.1902 -0.1816
 1597SOL    HW1 4926   0.320   3.181   1.074 -0.4515 -1.9618  0.0913
 1597SOL    HW2 4927   0.419   3.205   1.186 -0.5126  0.7861 -0.3755
 1598SOL     OW 4928   3.271   2.811   3.873  0.5274 -0.3802  0.1867
 1598SOL    HW1 4929   3.233   2.728   3.902 -1.5258  0.1385 -0.8211
 1598SOL    HW2 4930   3.318   2.789   3.793 -1.1390 -0.4331 -0.8410
 1599SOL     OW 4931   1.610   1.534   0.352  0.3950  0.2653 -0.7624
 1599SOL    HW1 4932   1.624   1.577   0.268  2.1878 -0.1439 -0.6989
 1599SOL    HW2 4933   1.686   1.556   0.405 -0.5662  0.2957  0.6925
 1600SOL     OW 4934   4.361   4.645   0.609  0.4209  0.6148 -0.1043
 1600SOL    HW1 4935   4.372   4.701   0.533 -0.7546 -0.1946 -0.8960
 1600SOL    HW2 4936   4.382   4.701   0.684  0.1235  1.8489 -0.9235
 1601SOL     OW 4937   4.676   3.754   4.226  0.9566  0.7378 -0.0188
 1601SOL    HW1 4938   4.642   3.682   4.172 -0.9509  2.6073 -1.4992
 1601SOL    HW2 4939   4.738   3.799   4.169  1.1126  1.0559  0.4023
 1602SOL     OW 4940   4.394   0.681   3.757  0.4188 -0.2472  0.7971
 1602SOL    HW1 4941   4.376   0.758   3.810  0.5021  0.9632 -0.8532
 1602SOL    HW2 4942   4.485   0.692   3.728  0.1549 -0.4878 -0.1829
 1603SOL     OW 4943   1.586   3.278   1.734  0.1840  0.2095  0.0482
 1603SOL    HW1 4944   1.571   3.328   1.653  2.6469  0.4146 -0.3791
 1603SOL    HW2 4945   1.645   3.334   1.785  0.9573 -1.1521  0.6937
 1604SOL     OW 4946   2.659   3.262   4.919 -0.1425 -0.7714  0.3931
 1604SOL    HW1 4947   2.646   3.167   4.924 -1.6857 -0.5468  1.1191
 1604SOL    HW2 4948   2.613   3.289   4.840  0.0433 -0.5882  0.3474
 1605SOL     OW 4949   0.196   4.350   2.877  0.1781  0.2895  0.4550
 1605SOL    HW1 4950   0.207   4.445   2.878 -1.2792  0.4994  1.4700
 1605SOL    HW2 4951   0.278   4.316   2.912  0.0729  1.3008  1.8085
 1606SOL     OW 4952   1.702   1.655   0.086 -0.1432 -0.8140 -0.4370
 1606SOL    HW1 4953   1.724   1.746   0.107  0.4951 -0.3665 -2.7946
 1606SOL    HW2 4954   1.783   1.606   0.106 -0.0910 -0.6749 -0.3034
 1607SOL     OW 4955   1.551   3.468   0.698 -0.0452  0.0001 -0.2449
 1607SOL    HW1 4956   1.571   3.388   0.746 -0.2658  0.0844 -0.0152
 1607SOL    HW2 4957   1.571   3.446   0.607  4.0322  0.9775  0.2468
 1608SOL     OW 4958   2.445   3.114   1.837 -0.7218 -0.1401 -0.3888
 1608SOL    HW1 4959   2.370   3.113   1.777 -1.7726 -0.5799  0.8805
 1608SOL    HW2 4960   2.483   3.027   1.830 -0.8721 -0.2067 -0.3704
 1609SOL     OW 4961   4.253   0.865   2.726 -0.6087  0.3371 -0.0894
 1609SOL    HW1 4962   4.319   0.885   2.659  1.8597  0.2459  2.1394
 1609SOL    HW2 4963   4.284   0.783   2.766  0.2200  2.2511  3.6112
 1610SOL     OW 4964   2.685   2.486   4.455 -0.1735  0.2564  0.2391
 1610SOL    HW1 4965   2.752   2.473   4.521  0.6140  1.1302 -0.3580
 1610SOL    HW2 4966   2.607   2.512   4.505  0.7148  2.0367  0.7931
 1611SOL     OW 4967   3.992   2.601   4.702 -0.3440  0.2477  0.0768
 1611SOL    HW1 4968   4.015   2.691   4.678  0.3085  0.2767  0.7709
 1611SOL    HW2 4969   3.900   2.592   4.677 -0.7734  1.5131  1.0785
 1612SOL     OW 4970   4.707   3.409   2.626  0.5163 -0.0467  0.2798
 1612SOL    HW1 4971   4.723   3.445   2.713  1.6655  0.3805 -0.0883
 1612SOL    HW2 4972   4.774   3.341   2.615  0.8863  0.4279 -0.5521
 1613SOL     OW 4973   0.486   4.366   4.150  0.7512 -0.3431  0.8862
 1613SOL    HW1 4974   0.411   4.332   4.199  1.0077  0.2696  1.7211
 1613SOL    HW2 4975   0.553   4.381   4.216  0.9514  0.9280  0.4107
 1614SOL     OW 4976   1.012   4.296   4.222 -0.3419 -0.3518 -0.1532
 1614SOL    HW1 4977   1.062   4.328   4.147 -1.0506  1.7554  0.1870
 1614SOL    HW2 4978   0.926   4.274   4.186  0.0624 -1.6751 -0.3400
 1615SOL     OW 4979   3.923   0.824   3.623  0.5065  0.1269 -0.1686
 1615SOL    HW1 4980   3.863   0.857   3.556 -0.2739 -3.1558 -1.2630
 1615SOL    HW2 4981   3.917   0.889   3.694 -2.7046  1.0625 -1.1004
 1616SOL     OW 4982   1.159   3.073   4.283 -0.0288 -0.1321 -0.1298
 1616SOL    HW1 4983   1.254   3.064   4.273  0.2080  0.7311  1.0577
 1616SOL    HW2 4984   1.145   3.069   4.378 -0.9999  1.3280 -0.1827
 1617SOL     OW 4985   1.689   0.012   0.920 -0.3974 -0.0682 -0.2778
 1617SOL    HW1 4986   1.634   0.083   0.885  2.3014  1.7665 -1.1284
 1617SOL    HW2 4987   1.728  -0.028   0.842  0.2398 -0.6824  0.3493
 1618SOL     OW 4988   0.060   2.785   3.081  0.2496  0.0880  0.1393
 1618SOL    HW1 4989   0.077   2.815   3.170  1.4355  0.2060 -0.1080
 1618SOL    HW2 4990  -0.012   2.723   3.090 -0.8438  1.4207  0.9326
 1619SOL     OW 4991   1.655   1.328   1.208 -0.0166  0.1075  0.1428
 1619SOL    HW1 4992   1.750   1.337   1.219 -0.0485 -0.3477  0.9226
 1619SOL    HW2 4993   1.623   1.418   1.199  0.5326  0.2359 -0.5745
 1620SOL     OW 4994   0.359   0.496   2.815 -0.1141 -0.3818  1.1142
 1620SOL    HW1 4995   0.408   0.578   2.817 -1.0776  0.1996  2.4692
 1620SOL    HW2 4996   0.289   0.511   2.751  0.9901 -0.9652 -0.2912
 1621SOL     OW 4997   3.415   0.205   0.726 -0.4184  0.5188 -0.0023
 1621SOL    HW1 4998   3.505   0.180   0.705  0.5447  2.4365  1.4745
 1621SOL    HW2 4999   3.375   0.125   0.759  1.0126 -0.1886  0.1219
 1622SOL     OW 5000   2.800   0.432   2.089  0.0441 -0.1411 -0.1216
 1622SOL    HW1 5001   2.760   0.358   2.135 -0.5937  0.7545  0.8007
 1622SOL    HW2 5002   2.735   0.502   2.096  2.0097  1.5963  2.0238
 1623SOL     OW 5003   2.124   0.739   3.626  0.2882 -0.6648 -0.0212
 1623SOL    HW1 5004   2.213   0.734   3.591  0.2986 -0.4075 -0.0294
 1623SOL    HW2 5005   2.068   0.741   3.548  0.4162  2.7882 -0.1661
 1624SOL     OW 5006   2.286   0.897   4.692  0.3109  0.0484  0.4559
 1624SOL    HW1 5007   2.235   0.825   4.657  0.3657  0.9283 -1.5651
 1624SOL    HW2 5008   2.373   0.861   4.707  0.5357 -0.1669 -1.2220
 1625SOL     OW 5009   3.985   4.150   0.899 -0.2567  0.2206 -0.5654
 1625SOL    HW1 5010   3.909   4.199   0.867  0.5117  0.7276 -1.6888
 1625SOL    HW2 5011   3.949   4.091   0.966 -1.3261  1.7492  0.2688
 1626SOL     OW 5012   3.117   0.017   1.399  0.4456 -0.2418  0.1416
 1626SOL    HW1 5013   3.139   0.107   1.424  1.6079 -0.4779  0.0241
 1626SOL    HW2 5014   3.022   0.012   1.408  0.3040  1.1579 -0.3501
 1627SOL     OW 5015   0.524   1.982   2.477  0.1876 -0.3903 -0.0700
 1627SOL    HW1 5016   0.471   1.935   2.412 -0.7381  1.5121 -0.7567
 1627SOL    HW2 5017   0.460   2.020   2.537  0.7791  1.2218 -0.4041
 1628SOL     OW 5018   4.144   3.457   2.147 -0.1068  0.0177 -0.8677
 1628SOL    HW1 5019   4.209   3.500   2.092 -1.2638  0.9694 -1.5322
 1628SOL    HW2 5020   4.192   3.431   2.225  0.6550  2.6845 -0.3550
 1629SOL     OW 5021   1.920   0.304   4.528 -0.2128 -0.4060  0.4076
 1629SOL    HW1 5022   1.968   0.329   4.607 -1.7791  0.1697  1.2215
 1629SOL    HW2 5023   1.901   0.211   4.541  1.8187 -1.0190 -0.5775
 1630SOL     OW 5024   1.050   0.963   3.227  0.1455 -0.2229 -0.0676
 1630SOL    HW1 5025   1.132   0.930   3.188 -0.4474 -1.9324  0.0606
 1630SOL    HW2 5026   1.079   1.014   3.302  1.0949 -1.9558  0.8180
 1631SOL     OW 5027   1.391   3.597   2.471  1.0567 -0.1865  0.3091
 1631SOL    HW1 5028   1.319   3.537   2.455  1.0478 -0.2329  0.5124
 1631SOL    HW2 5029   1.458   3.543   2.513  1.8192 -0.4889 -1.2553
 1632SOL     OW 5030   3.904   4.631   3.639 -0.7556  0.0120 -0.1167
 1632SOL    HW1 5031   3.950   4.706   3.676 -0.5159 -0.4589  0.5582
 1632SOL    HW2 5032   3.905   4.565   3.709  0.6585 -1.2902 -1.2904
 1633SOL     OW 5033   1.497   2.065   1.769  0.1131 -0.0905 -0.2468
 1633SOL    HW1 5034   1.540   2.008   1.832 -0.3271 -2.2086 -1.7404
 1633SOL    HW2 5035   1.440   2.007   1.718 -2.7720  2.1633  0.0973
 1634SOL     OW 5036   3.246   2.980   2.101  0.6063  0.1226 -0.2523
 1634SOL    HW1 5037   3.183   2.950   2.167  0.9117 -1.4589 -0.6384
 1634SOL    HW2 5038   3.218   3.069   2.079 -3.0832 -1.3002 -2.1883
 1635SOL     OW 5039   3.176   4.083   0.932  0.3270 -0.2349 -0.3184
 1635SOL    HW1 5040   3.138   4.080   1.020 -0.0246  0.9830 -0.4096
 1635SOL    HW2 5041   3.265   4.114   0.945  0.3942 -0.4177 -0.3511
 1636SOL     OW 5042   4.095   2.322   2.223 -0.2365  0.0509 -0.3665
 1636SOL    HW1 5043   4.033   2.393   2.206  0.3077  0.5945 -0.1147
 1636SOL    HW2 5044   4.100   2.275   2.140 -0.6948  0.2388 -0.5024
 1637SOL     OW 5045   2.579   1.242   4.399 -0.3641  0.0852 -0.4270
 1637SOL    HW1 5046   2.553   1.175   4.336 -0.1085  0.0474 -0.4931
 1637SOL    HW2 5047   2.601   1.192   4.478 -0.4036  0.1117 -0.3989
 1638SOL     OW 5048   0.465   0.439   0.637  0.2550  0.6689  0.8264
 1638SOL    HW1 5049   0.561   0.436   0.633  0.2620  0.2741  1.2611
 1638SOL    HW2 5050   0.440   0.486   0.558  0.7249 -0.6938 -0.1727
 1639SOL     OW 5051   2.570   2.849   1.794  1.0026  0.0598 -0.9848
 1639SOL    HW1 5052   2.618   2.804   1.725  0.2918 -0.5047 -1.1224
 1639SOL    HW2 5053   2.553   2.782   1.859 -0.0081  0.1332 -1.1613
 1640SOL     OW 5054   4.874   3.157   4.936  0.5798  0.0638 -0.0237
 1640SOL    HW1 5055   4.953   3.171   4.883  0.9769 -1.4886  0.0969
 1640SOL    HW2 5056   4.904   3.102   5.009 -0.5112 -0.1402  0.2855
 1641SOL     OW 5057   0.829   2.814   1.173  0.6654 -0.1904 -0.0266
 1641SOL    HW1 5058   0.783   2.756   1.112 -0.8942  1.1152 -0.1378
 1641SOL    HW2 5059   0.767   2.884   1.192  2.5939  1.6749 -0.1815
 1642SOL     OW 5060   0.804   2.669   0.200 -0.0815  0.2289  0.2968
 1642SOL    HW1 5061   0.724   2.669   0.148 -0.4579 -0.0807  0.8617
 1642SOL    HW2 5062   0.789   2.737   0.266 -0.1802 -0.3117  0.8427
 1643SOL     OW 5063   2.150   2.190   2.662 -0.2821  0.3795  0.4120
 1643SOL    HW1 5064   2.078   2.231   2.710 -1.2274 -0.8310  0.0935
 1643SOL    HW2 5065   2.198   2.141   2.728  1.3359  2.5374  0.9453
 1644SOL     OW 5066   0.150   2.077   3.352 -0.2333  0.0720 -0.1700
 1644SOL    HW1 5067   0.117   2.109   3.267  0.6092  0.6678 -0.2939
 1644SOL    HW2 5068   0.200   1.999   3.330 -1.1853 -0.5962 -0.0321
 1645SOL     OW 5069   4.314   1.469   0.186  1.0948 -0.0808  0.3971
 1645SOL    HW1 5070   4.232   1.483   0.234  1.5502 -0.0363  1.1678
 1645SOL    HW2 5071   4.324   1.374   0.182  1.4993 -0.0750  1.1584
 1646SOL     OW 5072   4.147   4.308   1.237  0.1923  0.6969  0.1502
 1646SOL    HW1 5073   4.078   4.361   1.198 -1.4833 -1.8928 -0.7131
 1646SOL    HW2 5074   4.221   4.318   1.177 -0.5980  0.9223 -0.8245
 1647SOL     OW 5075   0.249   0.905   4.292 -0.1047 -0.1091  0.7580
 1647SOL    HW1 5076   0.210   0.949   4.367  0.6670 -1.4480  1.9844
 1647SOL    HW2 5077   0.242   0.812   4.311 -0.2962 -0.5133 -1.0607
 1648SOL     OW 5078   2.291   0.814   0.892  0.0233  0.2433  0.4883
 1648SOL    HW1 5079   2.261   0.778   0.976 -0.2905 -1.0008 -0.1249
 1648SOL    HW2 5080   2.213   0.812   0.836 -0.3412  3.0849  0.7413
 1649SOL     OW 5081   3.048   2.584   4.220  0.7576 -0.6200  0.3065
 1649SOL    HW1 5082   3.020   2.662   4.267  1.9066 -0.2962  0.4863
 1649SOL    HW2 5083   3.115   2.615   4.159  1.5329 -1.5163  0.6778
 1650SOL     OW 5084   1.722   0.760   3.467  0.0410 -0.2131  0.2947
 1650SOL    HW1 5085   1.787   0.696   3.436 -2.7923 -1.2028 -4.6604
 1650SOL    HW2 5086   1.669   0.711   3.530  0.9731 -1.1133  0.4085
 1651SOL     OW 5087   2.887   3.665   3.371  0.2566 -0.3952 -1.0542
 1651SOL    HW1 5088   2.930   3.699   3.292 -0.6673  3.0662 -0.2101
 1651SOL    HW2 5089   2.959   3.652   3.433  0.5650  1.8989 -0.8368
 1652SOL     OW 5090   0.682   3.912   4.117  0.0905 -0.2705  0.5373
 1652SOL    HW1 5091   0.716   3.950   4.036  0.6775  0.6339  1.1905
 1652SOL    HW2 5092   0.587   3.918   4.108  0.1160 -1.2631 -0.5786
 1653SOL     OW 5093   1.287   1.978   1.607  0.2197 -0.8808 -0.2876
 1653SOL    HW1 5094   1.214   1.916   1.600 -0.8554  0.2062  0.7664
 1653SOL    HW2 5095   1.321   1.986   1.518 -1.6243 -0.6490 -1.0160
 1654SOL     OW 5096   4.080   2.340   4.599  0.2544 -0.0655  0.0479
 1654SOL    HW1 5097   4.119   2.349   4.512  3.2658 -2.0705  1.0108
 1654SOL    HW2 5098   4.090   2.427   4.639 -1.9479  1.1195 -1.7955
 1655SOL     OW 5099   4.851   4.105   2.684 -0.5751 -0.4559 -0.0980
 1655SOL    HW1 5100   4.849   4.169   2.612 -0.8462 -0.7885 -0.3946
 1655SOL    HW2 5101   4.938   4.113   2.721 -0.9845  0.9301  0.6528
 1656SOL     OW 5102   3.247   0.286   1.255  0.0744 -1.0912 -1.0300
 1656SOL    HW1 5103   3.213   0.298   1.344  3.3278  2.8606  0.0280
 1656SOL    HW2 5104   3.207   0.356   1.204 -0.7229 -2.4882 -2.4019
 1657SOL     OW 5105   2.098   4.179   1.629  0.2319  0.5660 -0.5508
 1657SOL    HW1 5106   2.026   4.140   1.578  0.1226 -2.9011  1.8585
 1657SOL    HW2 5107   2.175   4.128   1.604  0.7876  0.8535  0.5259
 1658SOL     OW 5108   2.246   0.465   2.373  0.5236  0.0691 -0.1074
 1658SOL    HW1 5109   2.220   0.457   2.465  0.7802 -0.3692 -0.0742
 1658SOL    HW2 5110   2.314   0.533   2.374  0.6644 -0.0730  0.0524
 1659SOL     OW 5111   2.163   0.851   0.337 -0.0383  0.3401 -0.2356
 1659SOL    HW1 5112   2.214   0.770   0.336 -1.1696 -0.4560 -2.6676
 1659SOL    HW2 5113   2.073   0.822   0.351 -0.2127  1.4387  1.1017
 1660SOL     OW 5114   3.491   2.997   3.018  0.5409  0.2927 -0.3517
 1660SOL    HW1 5115   3.466   2.962   2.933 -0.4953  3.1389 -1.3417
 1660SOL    HW2 5116   3.586   3.007   3.012  0.6759 -0.9936 -0.5495
 1661SOL     OW 5117   0.812   3.434   2.293 -0.6089  0.1450 -0.4766
 1661SOL    HW1 5118   0.889   3.491   2.287 -0.6585  0.2302 -0.3175
 1661SOL    HW2 5119   0.817   3.397   2.381 -0.4905 -0.2222 -0.6372
 1662SOL     OW 5120   3.833   0.864   4.520  0.2399 -0.1024  0.1249
 1662SOL    HW1 5121   3.856   0.884   4.429  0.4552  0.6987  0.3462
 1662SOL    HW2 5122   3.905   0.902   4.571 -2.1155  3.8153  0.9722
 1663SOL     OW 5123   1.519   0.690   3.898 -0.4914  0.4256  0.5393
 1663SOL    HW1 5124   1.448   0.754   3.896 -0.1380  0.8030 -0.0059
 1663SOL    HW2 5125   1.487   0.621   3.957 -0.8027  1.1846  1.2899
 1664SOL     OW 5126   4.294   4.050   3.101 -0.2706 -0.0753 -0.2965
 1664SOL    HW1 5127   4.208   4.087   3.081 -0.2745 -0.3718 -0.8369
 1664SOL    HW2 5128   4.285   4.017   3.190 -1.2068 -1.4981 -0.8830
 1665SOL     OW 5129   0.645   2.448   1.091  0.0762 -0.2536 -0.0243
 1665SOL    HW1 5130   0.620   2.356   1.099  1.7080 -0.6677  0.8968
 1665SOL    HW2 5131   0.712   2.460   1.158  1.6589  0.9675 -1.7198
 1666SOL     OW 5132   1.089   0.094   0.329  0.7036  0.3654  0.1398
 1666SOL    HW1 5133   1.047   0.033   0.269  3.5244 -0.2282 -1.3770
 1666SOL    HW2 5134   1.103   0.173   0.277  2.7998 -0.0013  0.0570
 1667SOL     OW 5135   0.957   1.936   3.022  0.0503  0.2625 -0.3098
 1667SOL    HW1 5136   0.977   2.029   3.013  0.3638  0.2145 -0.1102
 1667SOL    HW2 5137   0.989   1.896   2.941  0.0765  0.3011 -0.3186
 1668SOL     OW 5138   0.366   3.837   1.195 -0.1657  0.5046 -0.1943
 1668SOL    HW1 5139   0.324   3.764   1.240  0.4936 -0.0805 -0.5132
 1668SOL    HW2 5140   0.357   3.911   1.255 -1.1034  0.2459  0.0041
 1669SOL     OW 5141   2.411   0.139   4.389 -0.1035  0.1473 -0.0097
 1669SOL    HW1 5142   2.489   0.177   4.429 -0.3854  0.7235  0.0041
 1669SOL    HW2 5143   2.342   0.203   4.405 -0.6260 -0.4426  0.1382
 1670SOL     OW 5144   2.327   4.460   3.122 -0.0447 -0.0084 -0.4552
 1670SOL    HW1 5145   2.298   4.465   3.031  1.9400  2.2588 -1.0752
 1670SOL    HW2 5146   2.273   4.524   3.168  0.2620  0.2739 -0.4800
 1671SOL     OW 5147   3.895   0.876   0.066 -0.0163 -0.4011 -0.7848
 1671SOL    HW1 5148   3.983   0.912   0.058  0.7006 -1.8818  0.0869
 1671SOL    HW2 5149   3.858   0.882  -0.022  1.2586 -0.5178 -1.3409
 1672SOL     OW 5150   3.148   4.249   0.693 -0.0642  0.5923 -0.3361
 1672SOL    HW1 5151   3.169   4.232   0.601  2.1917 -0.8290  0.3731
 1672SOL    HW2 5152   3.190   4.178   0.741  0.7518  2.5090  1.9872
 1673SOL     OW 5153   2.389   2.037   1.534 -0.8682 -0.0775 -0.3696
 1673SOL    HW1 5154   2.377   1.964   1.473 -1.0413 -0.1186 -0.2860
 1673SOL    HW2 5155   2.310   2.090   1.523 -1.0878 -0.2957  0.1072
 1674SOL     OW 5156   1.104   1.534   1.260 -0.0215  0.0077 -0.6660
 1674SOL    HW1 5157   1.190   1.492   1.251  0.5278  1.1068 -0.8440
 1674SOL    HW2 5158   1.041   1.463   1.249  0.8604 -0.7682 -0.8851
 1675SOL     OW 5159   0.405   3.566   4.456 -0.1948 -0.3967 -0.4949
 1675SOL    HW1 5160   0.349   3.598   4.385 -0.2785 -0.6373 -0.5374
 1675SOL    HW2 5161   0.345   3.518   4.513 -0.0745 -0.4448 -0.4095
 1676SOL     OW 5162   3.952   4.182   4.225  0.5042  0.5366 -0.8843
 1676SOL    HW1 5163   3.943   4.109   4.165 -2.4165  0.3439 -0.3532
 1676SOL    HW2 5164   3.912   4.152   4.307  1.2656  1.9666  0.0672
 1677SOL     OW 5165   3.524   1.077   4.653 -0.2636 -0.2624  0.5443
 1677SOL    HW1 5166   3.596   1.076   4.590 -0.0394 -1.8446  0.7798
 1677SOL    HW2 5167   3.566   1.066   4.738 -0.3381  4.1614  1.3556
 1678SOL     OW 5168   0.898   4.353   3.809  0.0038  0.4143 -0.5936
 1678SOL    HW1 5169   0.898   4.275   3.754 -0.1525  1.0005 -1.4547
 1678SOL    HW2 5170   0.956   4.332   3.882 -0.7897 -0.8427 -0.3094
 1679SOL     OW 5171   3.834   1.457   4.983 -0.3035 -0.0389 -0.0430
 1679SOL    HW1 5172   3.879   1.417   5.058  1.1816  3.3519  1.0600
 1679SOL    HW2 5173   3.894   1.526   4.954 -0.4856 -1.5757 -4.9053
 1680SOL     OW 5174   2.888   1.066   3.705 -0.5957  0.4211 -0.4967
 1680SOL    HW1 5175   2.956   1.092   3.768 -1.3239  0.8182  0.1321
 1680SOL    HW2 5176   2.890   1.136   3.639  0.1200  0.0397 -0.8984
 1681SOL     OW 5177   0.260   4.482   2.446 -0.7293  0.2953 -0.0602
 1681SOL    HW1 5178   0.182   4.460   2.496  0.5264 -4.4108  0.2860
 1681SOL    HW2 5179   0.301   4.554   2.495 -2.6403 -0.0353  2.1691
 1682SOL     OW 5180   4.555   1.425   4.698  0.1566 -0.0624 -0.0172
 1682SOL    HW1 5181   4.562   1.402   4.791  0.7333  1.3075  0.2993
 1682SOL    HW2 5182   4.634   1.474   4.680  0.5767 -1.2331 -1.5396
 1683SOL     OW 5183   3.001   5.030   1.942 -0.0827  0.6535  0.4784
 1683SOL    HW1 5184   3.056   4.952   1.931 -0.8652 -0.1316  1.8310
 1683SOL    HW2 5185   3.056   5.103   1.914  1.7272 -0.0717  1.9539
 1684SOL     OW 5186   2.724   3.450   0.850  0.4497  0.1400 -0.1198
 1684SOL    HW1 5187   2.684   3.404   0.924 -0.4309  0.3562 -0.4482
 1684SOL    HW2 5188   2.650   3.482   0.799  1.0482  1.1038 -0.4088
 1685SOL     OW 5189   1.667   3.311   3.349 -0.2187 -0.1363  0.5247
 1685SOL    HW1 5190   1.639   3.399   3.323 -0.3908  0.3584  2.2021
 1685SOL    HW2 5191   1.746   3.294   3.298  0.1252  1.2354  0.5590
 1686SOL     OW 5192   2.200   3.636   0.274  0.3581  0.3783 -0.0149
 1686SOL    HW1 5193   2.229   3.561   0.326 -0.6572  0.6806  1.0127
 1686SOL    HW2 5194   2.160   3.597   0.196  0.2357 -0.1363  0.3043
 1687SOL     OW 5195   4.296   2.735   3.491 -0.4190 -0.6577  0.1983
 1687SOL    HW1 5196   4.304   2.748   3.586 -0.7868 -0.0414  0.1474
 1687SOL    HW2 5197   4.209   2.769   3.469  0.6324  1.5538 -0.7555
 1688SOL     OW 5198   1.607   3.390   0.432  0.3556 -0.1908 -0.1145
 1688SOL    HW1 5199   1.543   3.324   0.406 -2.5894  0.9322  3.4673
 1688SOL    HW2 5200   1.614   3.447   0.356 -1.7316 -1.2452 -1.1793
 1689SOL     OW 5201   3.242   0.100   3.582  0.1199  0.1611 -0.3760
 1689SOL    HW1 5202   3.255   0.193   3.605 -1.7750  0.1759  0.9249
 1689SOL    HW2 5203   3.309   0.054   3.632 -0.3296  0.6923  0.7708
 1690SOL     OW 5204   1.429   4.199   0.522  0.0136 -0.5570  0.2166
 1690SOL    HW1 5205   1.425   4.284   0.565  1.5251 -0.5401  0.3761
 1690SOL    HW2 5206   1.408   4.217   0.430 -0.3160 -0.1281  0.3762
 1691SOL     OW 5207   0.711   2.056   2.285 -0.3150  0.2216  0.4546
 1691SOL    HW1 5208   0.632   2.055   2.340 -0.6778  1.9924  0.0091
 1691SOL    HW2 5209   0.729   2.148   2.270  0.6413 -0.1908 -1.1832
 1692SOL     OW 5210   2.843   2.497   0.828 -0.0646  0.4679 -0.3416
 1692SOL    HW1 5211   2.822   2.590   0.831 -1.0366  0.2422  1.1700
 1692SOL    HW2 5212   2.937   2.493   0.843 -0.3497  1.1407  2.0563
 1693SOL     OW 5213   4.625   0.513   3.617 -0.0761 -0.7140  0.4696
 1693SOL    HW1 5214   4.564   0.455   3.572  0.9880 -0.8023 -0.8983
 1693SOL    HW2 5215   4.610   0.599   3.578 -0.5826 -0.3496  1.4229
 1694SOL     OW 5216   2.941   2.321   4.162  0.5408  0.0864 -0.2794
 1694SOL    HW1 5217   2.944   2.417   4.168  0.9401 -0.0233  1.7811
 1694SOL    HW2 5218   2.951   2.291   4.252  1.1882 -1.9283 -0.9811
 1695SOL     OW 5219   0.974   1.815   0.610 -0.5466  0.5676 -0.3808
 1695SOL    HW1 5220   0.904   1.793   0.549  1.5809 -0.4303 -2.6002
 1695SOL    HW2 5221   0.999   1.904   0.586 -0.4887  0.6318 -0.0963
 1696SOL     OW 5222   3.590   2.477   2.352 -0.3165 -0.0563 -0.6150
 1696SOL    HW1 5223   3.557   2.389   2.369 -4.5266  1.4557  0.1095
 1696SOL    HW2 5224   3.547   2.504   2.271 -0.9034  2.1016  0.3633
 1697SOL     OW 5225   2.928   0.303   3.111  0.6289 -0.3537 -0.4076
 1697SOL    HW1 5226   2.952   0.375   3.052  1.0190  0.0259  0.1976
 1697SOL    HW2 5227   2.851   0.336   3.158  0.5946 -0.4664 -0.3862
 1698SOL     OW 5228   0.694   3.754   1.277  0.0278  0.7537  0.1289
 1698SOL    HW1 5229   0.633   3.692   1.317  0.7630 -1.1466 -1.5829
 1698SOL    HW2 5230   0.651   3.839   1.288 -1.4436 -0.1259  1.7260
 1699SOL     OW 5231   4.678   4.593   0.111  0.1282  0.1829  0.5555
 1699SOL    HW1 5232   4.753   4.588   0.170  1.5623 -1.5001 -1.2781
 1699SOL    HW2 5233   4.657   4.502   0.091  1.1902  0.6149 -3.2184
 1700SOL     OW 5234   1.043   1.423   2.305  0.3282 -0.1532  0.0017
 1700SOL    HW1 5235   0.999   1.505   2.284 -0.0211 -0.3618 -0.0974
 1700SOL    HW2 5236   0.982   1.378   2.365  0.5888 -0.2663  0.1845
 1701SOL     OW 5237   4.067   1.953   0.233  0.5420  0.1065 -0.0327
 1701SOL    HW1 5238   4.093   1.960   0.141  1.6715 -1.3818  0.1306
 1701SOL    HW2 5239   3.972   1.965   0.233  0.5269  0.0838 -1.3886
 1702SOL     OW 5240   2.126   4.970   4.528 -0.5723  0.2762 -0.4499
 1702SOL    HW1 5241   2.135   4.977   4.433  0.1415  1.4830 -0.3279
 1702SOL    HW2 5242   2.185   4.899   4.553  0.2115  0.7833 -0.8058
 1703SOL     OW 5243   1.881   0.386   1.825  0.3087  0.1374  0.1051
 1703SOL    HW1 5244   1.870   0.398   1.919  0.3532 -0.5401  0.1992
 1703SOL    HW2 5245   1.882   0.291   1.812 -0.9696  0.2142 -0.7340
 1704SOL     OW 5246   1.489   4.812   1.940 -0.1058  0.3114  0.0041
 1704SOL    HW1 5247   1.521   4.746   2.001 -0.1641 -0.1417 -0.4438
 1704SOL    HW2 5248   1.401   4.833   1.971 -1.5264 -2.3764 -1.7570
 1705SOL     OW 5249   1.426   4.219   1.370  0.4400  0.7619 -0.2346
 1705SOL    HW1 5250   1.356   4.276   1.337  0.3775 -0.4543 -2.3679
 1705SOL    HW2 5251   1.427   4.235   1.464 -1.2381  2.4299 -0.4383
 1706SOL     OW 5252   3.020   3.903   1.579  0.1209 -0.8598  0.4865
 1706SOL    HW1 5253   3.024   3.986   1.627 -1.0506  0.7143 -1.8879
 1706SOL    HW2 5254   3.106   3.895   1.538  0.5120 -1.2571  1.3767
 1707SOL     OW 5255   2.225   4.401   4.960 -0.0018  0.0482 -0.8737
 1707SOL    HW1 5256   2.206   4.313   4.927 -0.8097  0.1810 -0.7883
 1707SOL    HW2 5257   2.188   4.460   4.893  2.1207  0.3635 -1.8624
 1708SOL     OW 5258   0.463   2.870   3.031  0.4287  0.0775  0.2700
 1708SOL    HW1 5259   0.547   2.895   2.992  0.2881  1.7931  0.9538
 1708SOL    HW2 5260   0.404   2.859   2.956  0.8214  0.6740 -0.1357
 1709SOL     OW 5261   0.309   0.296   4.109 -0.3213 -0.1301  0.0268
 1709SOL    HW1 5262   0.276   0.209   4.133 -0.8969  0.1622  0.3355
 1709SOL    HW2 5263   0.318   0.341   4.192 -0.9713  0.4294 -0.2003
 1710SOL     OW 5264   2.749   1.104   3.299  0.1740 -0.0773  0.5453
 1710SOL    HW1 5265   2.805   1.141   3.368  1.8069 -0.7812 -0.3359
 1710SOL    HW2 5266   2.660   1.128   3.324  0.7884  0.2835  2.5089
 1711SOL     OW 5267   1.388   3.240   3.232 -0.3425  0.5075  0.3153
 1711SOL    HW1 5268   1.447   3.314   3.247 -0.0121  0.5898 -1.2464
 1711SOL    HW2 5269   1.300   3.278   3.239 -0.2192  0.6253  1.4514
 1712SOL     OW 5270   0.183   1.024   0.351 -0.5007 -0.2005 -0.1960
 1712SOL    HW1 5271   0.142   1.110   0.353 -2.0445 -0.9172  0.5785
 1712SOL    HW2 5272   0.169   0.988   0.439 -0.7630 -1.6215 -0.7785
 1713SOL     OW 5273   2.588   1.167   3.783 -0.2089  0.1122 -0.1060
 1713SOL    HW1 5274   2.680   1.194   3.785 -0.6855  1.8305 -0.1543
 1713SOL    HW2 5275   2.587   1.083   3.828  1.5510 -0.4769 -1.0629
 1714SOL     OW 5276   1.836   3.832   1.699 -0.3963 -0.0680 -0.2809
 1714SOL    HW1 5277   1.865   3.891   1.768 -1.3458 -0.8674  0.8338
 1714SOL    HW2 5278   1.899   3.845   1.628  1.4138 -0.1883  1.2233
 1715SOL     OW 5279   3.166   4.973   0.692 -0.1148  0.3439 -0.2875
 1715SOL    HW1 5280   3.240   4.993   0.750 -0.0835  2.6891 -1.0610
 1715SOL    HW2 5281   3.185   4.884   0.661  1.1213 -0.0442  1.3609
 1716SOL     OW 5282   4.423   1.617   3.913  0.3598 -0.1362 -0.4238
 1716SOL    HW1 5283   4.366   1.671   3.859 -0.6706 -0.4341  0.3301
 1716SOL    HW2 5284   4.504   1.610   3.864  0.4321  1.8820 -0.6515
 1717SOL     OW 5285   2.332   1.273   1.262  0.0992 -0.4668  0.2793
 1717SOL    HW1 5286   2.314   1.232   1.177  0.0734 -0.9947  0.5381
 1717SOL    HW2 5287   2.428   1.275   1.268  0.1330  0.6469 -0.2735
 1718SOL     OW 5288   0.516   3.318   4.903 -0.2016  0.3075  0.2329
 1718SOL    HW1 5289   0.496   3.241   4.849 -0.5988  0.3788  0.2759
 1718SOL    HW2 5290   0.545   3.384   4.841 -2.1377  0.9024 -0.0964
 1719SOL     OW 5291   1.299   3.836   1.143  0.2866 -0.1818 -0.0671
 1719SOL    HW1 5292   1.301   3.899   1.071  0.2984  1.2311  1.1328
 1719SOL    HW2 5293   1.211   3.798   1.139 -0.0855  0.6776 -0.1553
 1720SOL     OW 5294   0.436   2.892   1.028  0.5097  0.5817  0.5820
 1720SOL    HW1 5295   0.527   2.910   1.005  0.4869  1.0116  0.8201
 1720SOL    HW2 5296   0.398   2.978   1.044  0.7314  0.3177  3.0203
 1721SOL     OW 5297   1.579   3.216   1.043  0.0234  0.6318 -0.5657
 1721SOL    HW1 5298   1.646   3.264   0.994  0.2674 -1.0952 -2.0441
 1721SOL    HW2 5299   1.612   3.126   1.046 -1.1833  0.2059  0.6742
 1722SOL     OW 5300   2.398   3.704   1.134  0.2134  0.2048  0.7833
 1722SOL    HW1 5301   2.371   3.633   1.191 -1.2903 -0.3367 -0.5313
 1722SOL    HW2 5302   2.431   3.661   1.056 -0.3982  0.9330  0.1097
 1723SOL     OW 5303   3.772   4.666   4.073 -0.5603  0.5967 -0.2659
 1723SOL    HW1 5304   3.811   4.578   4.083  1.7927  1.7571  2.1449
 1723SOL    HW2 5305   3.835   4.713   4.018  0.6884  1.9920  2.1990
 1724SOL     OW 5306   0.674   0.785   1.304  0.6609 -0.4668 -0.1323
 1724SOL    HW1 5307   0.609   0.726   1.342 -0.2861 -1.2067 -2.6486
 1724SOL    HW2 5308   0.744   0.728   1.272  0.9533  0.0047 -0.3544
 1725SOL     OW 5309   1.658   1.478   4.414  0.2021  0.5216 -0.5946
 1725SOL    HW1 5310   1.569   1.465   4.382 -0.0187  1.5902 -0.4616
 1725SOL    HW2 5311   1.661   1.571   4.439  1.2282  0.3993 -0.2188
 1726SOL     OW 5312   1.317   0.211   2.354 -0.4183 -0.2058 -0.2851
 1726SOL    HW1 5313   1.306   0.306   2.350  0.5456 -0.1095 -0.9833
 1726SOL    HW2 5314   1.232   0.176   2.327 -0.9257  0.4469  0.4297
 1727SOL     OW 5315   0.135   2.226   1.816 -0.2902 -0.1699  0.3925
 1727SOL    HW1 5316   0.222   2.245   1.780 -0.5842 -0.4715 -0.4958
 1727SOL    HW2 5317   0.104   2.152   1.763 -1.1860  0.0928  0.5538
 1728SOL     OW 5318   1.320   2.816   3.302 -0.3265 -0.5728 -0.0971
 1728SOL    HW1 5319   1.321   2.880   3.230  1.2477 -0.1392  0.2587
 1728SOL    HW2 5320   1.233   2.778   3.299 -1.3024  1.5125 -0.4040
 1729SOL     OW 5321   2.741   1.641   1.889 -0.0928 -0.6147 -0.2287
 1729SOL    HW1 5322   2.753   1.689   1.807 -0.2777  0.0037  0.1004
 1729SOL    HW2 5323   2.646   1.636   1.899 -0.0823  0.3280  0.5208
 1730SOL     OW 5324   4.745   0.579   3.841 -0.3850 -0.0489  0.0970
 1730SOL    HW1 5325   4.703   0.565   3.757 -0.1941  0.0696 -0.0200
 1730SOL    HW2 5326   4.722   0.502   3.893 -0.6607 -0.0303  0.0005
 1731SOL     OW 5327   1.805   4.029   2.125  0.1544  0.2124  0.0127
 1731SOL    HW1 5328   1.780   4.053   2.036 -0.2611 -0.8259 -0.1671
 1731SOL    HW2 5329   1.880   4.085   2.145  0.8180 -0.1491 -1.3187
 1732SOL     OW 5330   4.506   0.479   2.672  0.0871  0.0784 -0.1508
 1732SOL    HW1 5331   4.459   0.523   2.743 -1.5548 -2.2407  0.3138
 1732SOL    HW2 5332   4.446   0.483   2.597  0.6810  0.1887 -0.6265
 1733SOL     OW 5333   1.368   0.183   4.498 -0.0168 -0.0194  0.1920
 1733SOL    HW1 5334   1.456   0.149   4.513 -0.3145 -1.5458 -1.2141
 1733SOL    HW2 5335   1.322   0.167   4.581  1.6491  3.2317  1.9300
 1734SOL     OW 5336   2.553   1.851   3.864  0.1992  0.7884  0.4519
 1734SOL    HW1 5337   2.579   1.785   3.928  3.9281  0.3422 -1.2331
 1734SOL    HW2 5338   2.501   1.804   3.799  1.6333 -0.2797  0.0149
 1735SOL     OW 5339   0.223   0.796   5.054  0.4407 -0.4283 -0.7649
 1735SOL    HW1 5340   0.213   0.718   4.999  0.3995 -0.0469 -1.2988
 1735SOL    HW2 5341   0.150   0.852   5.029  2.2810  1.2395 -2.7998
 1736SOL     OW 5342   3.236   4.034   4.769 -0.6821 -1.5569  0.0304
 1736SOL    HW1 5343   3.142   4.043   4.778 -0.4117  1.0296  1.0430
 1736SOL    HW2 5344   3.270   4.040   4.858  0.4961 -1.6050 -0.3932
 1737SOL     OW 5345   2.937   3.258   4.357 -0.2329 -0.1096  0.0484
 1737SOL    HW1 5346   2.926   3.342   4.401 -0.8749 -0.6666  1.0153
 1737SOL    HW2 5347   2.899   3.194   4.419 -0.6408 -0.9938 -1.0767
 1738SOL     OW 5348   1.298   2.937   2.267  0.2146 -0.2804  0.1547
 1738SOL    HW1 5349   1.249   2.875   2.212  1.6374 -1.4695  0.1630
 1738SOL    HW2 5350   1.383   2.944   2.224  1.2511 -0.9786  1.9806
 1739SOL     OW 5351   4.420   1.424   3.447 -0.4899  0.5171 -0.0923
 1739SOL    HW1 5352   4.502   1.400   3.403 -0.6642  0.6069 -0.4692
 1739SOL    HW2 5353   4.402   1.349   3.504  0.1336  0.7317  0.3963
 1740SOL     OW 5354   3.640   2.169   3.624 -0.2358 -0.4079  0.2614
 1740SOL    HW1 5355   3.630   2.210   3.538  1.0559  1.5397  0.9511
 1740SOL    HW2 5356   3.551   2.160   3.657 -0.7211 -0.8183 -1.1076
 1741SOL     OW 5357   4.405   5.023   4.774 -0.0408 -0.4163  0.5451
 1741SOL    HW1 5358   4.420   4.971   4.695 -1.0659 -1.0977  0.7805
 1741SOL    HW2 5359   4.338   5.086   4.750  0.2044 -0.1110  0.6545
 1742SOL     OW 5360   4.662   1.051   3.845  0.5822  0.2104 -0.5458
 1742SOL    HW1 5361   4.601   1.058   3.771 -0.5589  0.2389  0.3686
 1742SOL    HW2 5362   4.692   0.960   3.842 -2.1495 -0.8544  0.9402
 1743SOL     OW 5363   1.025   3.969   4.792 -0.5006 -0.3856  0.8857
 1743SOL    HW1 5364   1.001   4.036   4.856  1.0111  0.8923  0.1691
 1743SOL    HW2 5365   0.959   3.976   4.724 -0.1311  0.6730  0.6197
 1744SOL     OW 5366   3.764   4.205   0.501 -0.3186 -0.0770  0.3116
 1744SOL    HW1 5367   3.827   4.276   0.511  2.1719 -2.0100 -0.5322
 1744SOL    HW2 5368   3.767   4.182   0.408 -0.8924 -1.4208  0.6002
 1745SOL     OW 5369   1.435   4.477   0.566 -0.8419  0.1321 -0.1173
 1745SOL    HW1 5370   1.372   4.502   0.633 -0.1509  0.5406  0.4050
 1745SOL    HW2 5371   1.400   4.512   0.484  0.1907  3.1406  0.5963
 1746SOL     OW 5372   3.854   1.397   2.510  0.4109  0.8481  0.2441
 1746SOL    HW1 5373   3.789   1.329   2.492 -0.2911  1.9306 -1.7108
 1746SOL    HW2 5374   3.894   1.371   2.592 -2.3138 -0.0302  1.4204
 1747SOL     OW 5375   3.113   3.813   1.978 -0.0495  0.9739  0.6810
 1747SOL    HW1 5376   3.092   3.780   1.891 -0.7736 -0.8191  1.4928
 1747SOL    HW2 5377   3.050   3.883   1.993 -1.3604 -0.1694  0.6104
 1748SOL     OW 5378   3.127   2.403   2.547 -0.0706  0.0910  0.0054
 1748SOL    HW1 5379   3.139   2.314   2.514  2.5789  0.0181  0.9463
 1748SOL    HW2 5380   3.103   2.391   2.639 -0.5296  0.3750 -0.0716
 1749SOL     OW 5381   2.956   4.799   2.563  0.3750 -0.2077 -0.0275
 1749SOL    HW1 5382   3.035   4.796   2.509  1.1081  1.3188  0.8985
 1749SOL    HW2 5383   2.897   4.859   2.517 -0.6090 -1.9395 -1.1218
 1750SOL     OW 5384   3.685   4.975   3.370  0.0602  0.6224  0.0260
 1750SOL    HW1 5385   3.596   4.941   3.381  0.3655 -0.3546 -0.3975
 1750SOL    HW2 5386   3.710   5.005   3.457  0.0600 -1.0055  0.6262
 1751SOL     OW 5387   0.927   5.001   1.473  0.5030  0.1909  0.6188
 1751SOL    HW1 5388   0.997   4.953   1.428 -1.8330 -0.6523 -2.3893
 1751SOL    HW2 5389   0.906   4.946   1.549  0.7450 -1.4064 -0.4105
 1752SOL     OW 5390   4.624   1.094   1.973 -0.1782 -0.1017  0.4365
 1752SOL    HW1 5391   4.546   1.050   2.006  0.1024  0.6821  2.2949
 1752SOL    HW2 5392   4.623   1.179   2.017  1.3931  0.1672  0.0055
 1753SOL     OW 5393   0.119   0.667   4.388  0.1507  0.2003 -0.4872
 1753SOL    HW1 5394   0.192   0.619   4.427 -0.8475 -1.9625 -1.1166
 1753SOL    HW2 5395   0.065   0.693   4.463  0.1305 -0.7041 -0.1722
 1754SOL     OW 5396   2.814   3.158   1.525  0.6250  0.0326  0.4181
 1754SOL    HW1 5397   2.767   3.172   1.607 -0.0925 -3.1045  0.6655
 1754SOL    HW2 5398   2.896   3.116   1.551  0.9834  0.2014 -0.4001
 1755SOL     OW 5399   4.088   4.571   0.381 -0.1560 -0.0577 -0.1401
 1755SOL    HW1 5400   4.157   4.618   0.428 -0.0289 -0.9247  0.5614
 1755SOL    HW2 5401   4.114   4.576   0.289 -1.1157  2.8579 -0.3438
 1756SOL     OW 5402   1.937   2.103   0.425 -0.2795 -0.5199  0.3431
 1756SOL    HW1 5403   1.958   2.011   0.439  0.9897 -0.0002  2.0979
 1756SOL    HW2 5404   1.890   2.130   0.503 -1.2324  0.1839 -0.4420
 1757SOL     OW 5405   4.789   4.260   2.459  0.4098 -1.0674 -0.2008
 1757SOL    HW1 5406   4.875   4.258   2.419  0.9365  1.5471  0.5613
 1757SOL    HW2 5407   4.728   4.249   2.386  1.3865  0.2172 -1.2706
 1758SOL     OW 5408   1.909   1.741   1.770 -0.3664  0.1161  0.5815
 1758SOL    HW1 5409   1.961   1.672   1.728 -1.6882  0.1074 -1.1522
 1758SOL    HW2 5410   1.915   1.722   1.863  2.6289  0.0778  0.4501
 1759SOL     OW 5411   1.930   4.672   1.029 -0.2361 -0.0195 -0.3347
 1759SOL    HW1 5412   1.836   4.651   1.029 -0.1262 -0.5390  0.1130
 1759SOL    HW2 5413   1.972   4.594   0.991 -0.0146  0.3667 -0.8956
 1760SOL     OW 5414   1.148   4.313   4.650 -0.5429  0.2334 -0.3533
 1760SOL    HW1 5415   1.095   4.340   4.574 -0.0719  2.2416 -0.0230
 1760SOL    HW2 5416   1.085   4.296   4.719 -0.8906 -0.1797 -0.7639
 1761SOL     OW 5417   1.052   1.130   2.067 -0.0212  0.0639  0.1134
 1761SOL    HW1 5418   1.003   1.057   2.105  0.6335 -0.1864  0.5044
 1761SOL    HW2 5419   1.081   1.181   2.143  1.6075 -0.6361 -0.0096
 1762SOL     OW 5420   2.560   0.572   0.002 -0.1195  0.4210  0.2467
 1762SOL    HW1 5421   2.612   0.597   0.079  0.7851 -0.3197 -0.1113
 1762SOL    HW2 5422   2.620   0.584  -0.072 -0.4658 -0.4097 -0.1779
 1763SOL     OW 5423   3.713   0.343   3.417 -0.4783 -0.1377  0.1213
 1763SOL    HW1 5424   3.781   0.307   3.362 -0.7837  0.0374 -0.3735
 1763SOL    HW2 5425   3.631   0.318   3.374 -0.7865 -1.4548  1.3661
 1764SOL     OW 5426   1.372   2.653   4.185  0.3472 -0.2396  0.1556
 1764SOL    HW1 5427   1.283   2.684   4.170  0.4202 -0.0227  0.1650
 1764SOL    HW2 5428   1.401   2.701   4.263  0.5070 -0.2354  0.0940
 1765SOL     OW 5429   4.707   4.665   3.945 -0.1896  0.0780 -0.8472
 1765SOL    HW1 5430   4.623   4.619   3.953  0.2713 -0.5062  1.7380
 1765SOL    HW2 5431   4.755   4.617   3.878 -1.2271 -0.7381 -1.0336
 1766SOL     OW 5432   4.692   3.395   2.064 -0.6099 -0.0965  0.6141
 1766SOL    HW1 5433   4.769   3.437   2.102  0.8121  0.0011 -2.1053
 1766SOL    HW2 5434   4.714   3.301   2.064 -1.1057 -0.2181  1.0659
 1767SOL     OW 5435   3.951   0.550   3.477 -0.0551 -0.1647 -0.1166
 1767SOL    HW1 5436   3.870   0.600   3.485  0.5238  0.5604  2.3966
 1767SOL    HW2 5437   3.987   0.574   3.392  0.1112  3.7090  0.8350
 1768SOL     OW 5438   4.671   0.037   2.385  0.0029 -0.1113  0.2284
 1768SOL    HW1 5439   4.626   0.018   2.468  0.9392  1.8910  1.2601
 1768SOL    HW2 5440   4.640   0.124   2.361 -0.3489 -0.7188 -1.6336
 1769SOL     OW 5441   1.911   3.215   2.284 -0.0560 -0.1548 -0.4088
 1769SOL    HW1 5442   1.978   3.268   2.329 -0.6109 -0.7164  1.1146
 1769SOL    HW2 5443   1.961   3.159   2.225  0.9326 -1.1371  1.2837
 1770SOL     OW 5444   2.197   1.812   0.085 -0.2938 -0.4717 -0.1376
 1770SOL    HW1 5445   2.284   1.839   0.114 -0.9192 -0.1509  1.5233
 1770SOL    HW2 5446   2.143   1.891   0.091 -1.1110 -1.0559  0.5937
 1771SOL     OW 5447   1.373   4.104   2.605 -0.2587  0.1634 -0.7992
 1771SOL    HW1 5448   1.386   4.027   2.550  0.3401 -1.1342  1.0441
 1771SOL    HW2 5449   1.461   4.125   2.637 -0.8151 -0.4186  1.2503
 1772SOL     OW 5450   1.217   4.269   0.870  0.3805 -0.2798 -0.4325
 1772SOL    HW1 5451   1.240   4.344   0.816  0.5992  1.1952  1.6005
 1772SOL    HW2 5452   1.227   4.193   0.812  1.2294  1.1510 -2.2336
 1773SOL     OW 5453   0.627   1.420   2.918  0.6844  0.1401  0.2312
 1773SOL    HW1 5454   0.615   1.509   2.884  0.7311  0.6743  1.5621
 1773SOL    HW2 5455   0.542   1.378   2.906  1.2382 -0.3906 -2.4132
 1774SOL     OW 5456   4.104   4.396   4.360  0.0130 -1.2384 -0.6045
 1774SOL    HW1 5457   4.072   4.470   4.308 -2.3229 -1.1318  0.8292
 1774SOL    HW2 5458   4.072   4.318   4.313  2.4032 -1.4278 -2.0708
 1775SOL     OW 5459   1.359   2.413   4.074  0.1667  0.3170  0.2308
 1775SOL    HW1 5460   1.437   2.408   4.019 -0.3997 -0.2844 -0.5415
 1775SOL    HW2 5461   1.360   2.502   4.109  1.7813 -0.0218  1.1247
 1776SOL     OW 5462   0.189   2.430   4.699 -0.4343 -0.1634 -0.5341
 1776SOL    HW1 5463   0.116   2.492   4.702 -1.0791 -0.8275 -1.6456
 1776SOL    HW2 5464   0.171   2.376   4.622 -0.1098 -2.0117  0.6500
 1777SOL     OW 5465   0.142   1.750   4.624 -0.4742 -0.2312 -0.6101
 1777SOL    HW1 5466   0.173   1.835   4.592  0.7268 -0.7882 -1.0091
 1777SOL    HW2 5467   0.119   1.766   4.716  1.5382  0.1657 -0.1065
 1778SOL     OW 5468   2.133   2.286   3.851 -0.0353  0.7654  0.3197
 1778SOL    HW1 5469   2.061   2.254   3.904  0.0645  0.4508  0.2690
 1778SOL    HW2 5470   2.184   2.342   3.910 -0.0603  0.6117  0.4867
 1779SOL     OW 5471   0.363   0.619   0.418 -0.5494 -0.2173  0.4222
 1779SOL    HW1 5472   0.404   0.688   0.365  0.8341 -0.8641  0.6082
 1779SOL    HW2 5473   0.313   0.667   0.484 -1.1347  0.5966 -0.5840
 1780SOL     OW 5474   1.772   4.174   4.232  0.5436  0.0339  0.0614
 1780SOL    HW1 5475   1.826   4.123   4.173 -0.2066  0.5063 -1.0600
 1780SOL    HW2 5476   1.824   4.181   4.312  1.2665 -1.2393 -0.2656
 1781SOL     OW 5477   3.666   0.392   3.686 -0.1705  0.3948 -0.0696
 1781SOL    HW1 5478   3.710   0.476   3.692  2.7658 -1.1304  2.3031
 1781SOL    HW2 5479   3.708   0.348   3.612  1.8839 -0.7477  1.6894
 1782SOL     OW 5480   3.761   2.063   1.336 -0.0684  0.3455  0.3131
 1782SOL    HW1 5481   3.829   2.102   1.391 -0.1948  0.4730  0.3782
 1782SOL    HW2 5482   3.808   2.004   1.278  0.2152  1.2470 -0.3778
 1783SOL     OW 5483   2.010   4.234   0.634  0.4902  0.8214 -0.3481
 1783SOL    HW1 5484   2.045   4.300   0.573  1.6966  0.8464  0.3320
 1783SOL    HW2 5485   2.088   4.188   0.666 -0.2767 -0.4981 -0.3024
 1784SOL     OW 5486   4.390   4.334   4.913  0.2102 -0.0048  0.2443
 1784SOL    HW1 5487   4.296   4.351   4.920  0.2168  0.1707 -0.0820
 1784SOL    HW2 5488   4.409   4.345   4.820  0.0466 -2.6079 -0.1704
 1785SOL     OW 5489   3.057   4.084   1.197 -0.0944 -0.5566 -0.0116
 1785SOL    HW1 5490   3.104   4.111   1.276  1.1081 -0.2171 -0.8067
 1785SOL    HW2 5491   3.029   3.995   1.215  0.5710 -0.6473  0.6266
 1786SOL     OW 5492   2.437   0.071   3.439 -0.4365  0.4473  0.1367
 1786SOL    HW1 5493   2.348   0.042   3.417  0.3417 -1.7555 -0.3857
 1786SOL    HW2 5494   2.465   0.013   3.509  0.8965  0.5461 -0.2784
 1787SOL     OW 5495   0.003   3.607   0.156  0.0489  0.3613  0.2029
 1787SOL    HW1 5496  -0.033   3.520   0.170 -1.0100  0.9045  0.9630
 1787SOL    HW2 5497   0.046   3.630   0.238 -0.8306  1.0796  0.4780
 1788SOL     OW 5498   0.750   4.124   4.352 -0.3002 -0.4538  0.4857
 1788SOL    HW1 5499   0.712   4.044   4.316  2.0458 -2.0102  1.2018
 1788SOL    HW2 5500   0.757   4.183   4.277 -3.2389 -0.3573  0.1802
 1789SOL     OW 5501   4.573   3.104   2.337 -0.6488  0.1346  0.4876
 1789SOL    HW1 5502   4.560   3.149   2.420 -0.4338  1.2165 -0.0500
 1789SOL    HW2 5503   4.489   3.061   2.319 -0.0286 -2.0715  2.3643
 1790SOL     OW 5504   3.557   2.462   1.580 -0.3335  0.8425 -0.0990
 1790SOL    HW1 5505   3.501   2.400   1.533 -1.0129  1.2812  0.1160
 1790SOL    HW2 5506   3.646   2.430   1.564 -0.6374  0.1291 -0.4425
 1791SOL     OW 5507   0.847   3.990   4.613  0.3561 -0.2955 -0.5064
 1791SOL    HW1 5508   0.797   4.061   4.572  0.5395  0.6062  0.7490
 1791SOL    HW2 5509   0.859   3.926   4.544 -0.7281  0.4250 -1.4046
 1792SOL     OW 5510   4.147   3.732   1.081 -0.8997 -0.3270 -0.1603
 1792SOL    HW1 5511   4.080   3.756   1.017 -0.8718  2.9852  0.8907
 1792SOL    HW2 5512   4.222   3.788   1.059  0.7014 -2.1983  0.2128
 1793SOL     OW 5513   3.766   2.389   2.558 -0.0637 -0.3589  0.2643
 1793SOL    HW1 5514   3.717   2.424   2.632 -0.1010 -0.0947  0.1137
 1793SOL    HW2 5515   3.745   2.447   2.485 -0.4201 -0.9082 -0.0765
 1794SOL     OW 5516   4.134   1.369   3.483  0.0892 -0.6741  0.6834
 1794SOL    HW1 5517   4.106   1.368   3.392  2.0663  0.6944  0.0074
 1794SOL    HW2 5518   4.116   1.458   3.513  0.2120 -0.8743  1.3774
 1795SOL     OW 5519   2.329   3.626   1.773  0.4027  0.5940 -0.3618
 1795SOL    HW1 5520   2.259   3.671   1.821 -1.3746 -0.9809 -1.3520
 1795SOL    HW2 5521   2.381   3.696   1.734 -1.2010  1.8117 -0.3981
 1796SOL     OW 5522   0.695   3.188   3.473  0.2085 -0.0565 -0.6942
 1796SOL    HW1 5523   0.658   3.240   3.402  1.4594 -0.4263 -1.6652
 1796SOL    HW2 5524   0.747   3.120   3.428 -0.1931 -1.2390  0.5461
 1797SOL     OW 5525   1.593   3.480   2.625 -0.0880 -0.1168  0.2274
 1797SOL    HW1 5526   1.628   3.548   2.683 -1.7099 -0.9946  2.4167
 1797SOL    HW2 5527   1.666   3.420   2.612  0.3645  0.1590  1.3305
 1798SOL     OW 5528   0.987   4.064   2.026 -0.1074 -0.2048 -0.1231
 1798SOL    HW1 5529   1.081   4.080   2.022 -0.2091  0.3111 -0.5206
 1798SOL    HW2 5530   0.979   3.973   2.054  0.5236 -0.4900 -0.8629
 1799SOL     OW 5531   3.990   2.761   0.346 -0.2284 -0.0354 -0.0920
 1799SOL    HW1 5532   3.982   2.733   0.438  1.4331 -2.0001 -0.4732
 1799SOL    HW2 5533   4.038   2.690   0.304  3.9782  3.1670 -1.3198
 1800SOL     OW 5534   3.028   3.425   4.000  0.5257 -0.0221  0.5068
 1800SOL    HW1 5535   3.008   3.331   4.001 -0.6520  0.1700 -0.8921
 1800SOL    HW2 5536   2.947   3.467   4.030  1.1462  0.5470  1.4173
 1801SOL     OW 5537   4.541   1.584   1.747 -0.0864  0.2368 -0.9856
 1801SOL    HW1 5538   4.462   1.543   1.711 -0.0811  0.7943 -1.6556
 1801SOL    HW2 5539   4.570   1.645   1.679 -0.9952  2.5887  0.6025
 1802SOL     OW 5540   2.374   1.747   0.718  0.0512 -0.3713  0.4536
 1802SOL    HW1 5541   2.293   1.695   0.727  0.3101 -0.6443  1.3763
 1802SOL    HW2 5542   2.442   1.682   0.700  0.4104 -0.4134  1.8063
 1803SOL     OW 5543   4.275   3.473   1.015 -0.3779  0.0439  0.3357
 1803SOL    HW1 5544   4.244   3.561   1.037 -0.8892  0.9200 -3.2491
 1803SOL    HW2 5545   4.369   3.484   0.999  0.0395 -0.6330  2.0332
 1804SOL     OW 5546   3.205   0.884   0.008 -0.0513 -0.0283 -0.0547
 1804SOL    HW1 5547   3.197   0.802   0.057 -1.0193 -0.2665 -0.5942
 1804SOL    HW2 5548   3.115   0.912  -0.007  0.2486  0.4955 -0.9529
 1805SOL     OW 5549   2.825   3.940   2.791 -0.1762 -0.6572  0.0508
 1805SOL    HW1 5550   2.809   4.033   2.806 -2.2563 -1.0418  0.4790
 1805SOL    HW2 5551   2.916   3.927   2.819  0.5865  1.4604 -1.1897
 1806SOL     OW 5552   1.308   1.442   4.326  0.0883  0.1342  0.5437
 1806SOL    HW1 5553   1.337   1.481   4.243  1.3721 -2.0320 -0.1038
 1806SOL    HW2 5554   1.306   1.516   4.387 -0.3132  1.6952 -1.2222
 1807SOL     OW 5555   1.673   2.771   1.900  0.3616  0.1247 -0.1766
 1807SOL    HW1 5556   1.719   2.770   1.984  0.5392 -2.2318 -0.2114
 1807SOL    HW2 5557   1.630   2.856   1.896  0.9543  0.5762  1.9567
 1808SOL     OW 5558   0.766   2.538   1.334 -0.5868 -0.6195  0.1611
 1808SOL    HW1 5559   0.818   2.544   1.414 -0.7472 -1.1159  0.3028
 1808SOL    HW2 5560   0.786   2.619   1.287 -0.2324 -0.4800  0.5441
 1809SOL     OW 5561   0.954   0.858   2.171 -0.0826 -0.1983  0.1001
 1809SOL    HW1 5562   0.912   0.771   2.173  0.4866 -0.5090 -0.8692
 1809SOL    HW2 5563   0.951   0.887   2.262 -0.8194 -0.9736  0.3471
 1810SOL     OW 5564   2.076   3.327   1.492 -0.2337  0.4523 -0.1560
 1810SOL    HW1 5565   2.170   3.309   1.493 -0.3111 -1.5735  5.4206
 1810SOL    HW2 5566   2.066   3.411   1.537 -1.0812  0.1500  0.2515
 1811SOL     OW 5567   4.704   0.021   3.141 -0.4475  0.6736 -0.2330
 1811SOL    HW1 5568   4.746   0.065   3.216 -2.0311  0.2038  0.9708
 1811SOL    HW2 5569   4.682  -0.066   3.173  0.9553 -0.4094 -2.0179
 1812SOL     OW 5570   1.787   3.540   4.245 -0.4045 -0.2876 -0.6422
 1812SOL    HW1 5571   1.876   3.512   4.223 -0.5611 -1.7745  0.4243
 1812SOL    HW2 5572   1.741   3.540   4.162  0.9440  2.1554 -1.5019
 1813SOL     OW 5573   0.162   5.045   3.872  0.5148 -0.2014  0.7516
 1813SOL    HW1 5574   0.125   4.957   3.877 -2.4194  0.8782  0.2210
 1813SOL    HW2 5575   0.153   5.079   3.961  0.8084 -0.1260  0.7530
 1814SOL     OW 5576   4.882   4.742   1.247  0.2496  0.0942  0.3925
 1814SOL    HW1 5577   4.899   4.808   1.314 -1.0297  0.7846  0.0665
 1814SOL    HW2 5578   4.791   4.716   1.260  0.4429 -0.8858 -0.1111
 1815SOL     OW 5579   2.483   2.991   0.197 -0.0343 -0.3529 -0.1580
 1815SOL    HW1 5580   2.489   2.950   0.284 -1.8579  1.2444  0.7967
 1815SOL    HW2 5581   2.558   3.049   0.192 -0.5469  0.4236  0.8754
 1816SOL     OW 5582   0.372   0.681   2.584  0.1040  0.5477 -0.0871
 1816SOL    HW1 5583   0.332   0.736   2.650  1.2249  0.6371  0.5529
 1816SOL    HW2 5584   0.465   0.680   2.607  0.4674  0.3145 -1.4755
 1817SOL     OW 5585   4.219   3.447   3.237  0.5801 -0.0024  0.5421
 1817SOL    HW1 5586   4.286   3.413   3.296  2.9826  1.0002 -1.4053
 1817SOL    HW2 5587   4.208   3.539   3.264 -0.1586 -0.2008  0.9468
 1818SOL     OW 5588   1.586   4.213   1.165 -0.1146 -0.4570  0.0561
 1818SOL    HW1 5589   1.525   4.208   1.239  0.5829 -1.1324  0.6031
 1818SOL    HW2 5590   1.661   4.262   1.198  0.4029 -1.1612 -0.0432
 1819SOL     OW 5591   4.419   0.908   2.501  0.2025 -0.4256 -0.0832
 1819SOL    HW1 5592   4.513   0.921   2.518  0.2886 -0.2723 -0.6623
 1819SOL    HW2 5593   4.403   0.954   2.420 -0.3006 -0.7655 -0.1797
 1820SOL     OW 5594   4.329   3.344   1.904  0.3662 -0.3046 -0.2000
 1820SOL    HW1 5595   4.333   3.301   1.818 -0.7897  1.0511 -0.9725
 1820SOL    HW2 5596   4.239   3.333   1.933  0.4654  0.1948  0.3213
 1821SOL     OW 5597   0.704   3.129   3.168  0.4850 -0.0167 -0.4474
 1821SOL    HW1 5598   0.790   3.091   3.186  0.6515  0.7029  0.3271
 1821SOL    HW2 5599   0.687   3.107   3.076  1.1799 -0.7685 -0.4016
 1822SOL     OW 5600   4.141   2.198   4.249  0.1117 -0.6963  0.2202
 1822SOL    HW1 5601   4.228   2.234   4.268 -0.5104  1.5048 -0.7497
 1822SOL    HW2 5602   4.151   2.152   4.166  0.5272 -1.2520  0.5695
 1823SOL     OW 5603   0.699   1.243   3.503 -0.0070  0.4621  0.7073
 1823SOL    HW1 5604   0.701   1.171   3.566  0.9415  0.0181  0.1921
 1823SOL    HW2 5605   0.750   1.312   3.545 -1.2565  1.0100  1.3784
 1824SOL     OW 5606   2.922   3.609   2.180  0.3662  0.5417  0.2603
 1824SOL    HW1 5607   2.926   3.629   2.086  0.1912 -1.2990 -0.1642
 1824SOL    HW2 5608   2.860   3.672   2.215 -0.2054  0.7104 -1.0136
 1825SOL     OW 5609   1.084   1.526   3.655 -0.2482  0.0695 -0.3666
 1825SOL    HW1 5610   1.004   1.485   3.689  0.2445 -0.2548  0.4389
 1825SOL    HW2 5611   1.054   1.608   3.616 -0.9681 -0.0248 -0.0365
 1826SOL     OW 5612   4.690   4.674   2.289 -0.1110 -0.1636 -0.2656
 1826SOL    HW1 5613   4.780   4.644   2.298 -0.1612  0.0783  1.3198
 1826SOL    HW2 5614   4.659   4.685   2.379 -1.6545 -0.0291 -0.7822
 1827SOL     OW 5615   2.251   4.301   2.297 -0.6536  0.3133  0.4864
 1827SOL    HW1 5616   2.334   4.304   2.250 -1.2230 -2.2191 -0.8128
 1827SOL    HW2 5617   2.265   4.359   2.373  2.0000  0.5488 -0.0859
 1828SOL     OW 5618   3.953   4.394   0.571 -0.0272 -0.3231  0.0782
 1828SOL    HW1 5619   4.006   4.463   0.531  0.7694 -1.7205 -1.3983
 1828SOL    HW2 5620   3.947   4.419   0.663  3.1635 -0.0526  0.3275
 1829SOL     OW 5621   2.945   2.846   4.086 -0.1731 -0.3538 -0.3045
 1829SOL    HW1 5622   2.993   2.923   4.117 -0.0354 -0.4272 -0.3320
 1829SOL    HW2 5623   2.921   2.800   4.166 -0.1109 -0.3679 -0.2935
 1830SOL     OW 5624   1.145   2.715   2.104 -0.0821  0.0754 -0.6632
 1830SOL    HW1 5625   1.107   2.699   2.191  1.0725 -0.3175 -0.2128
 1830SOL    HW2 5626   1.190   2.633   2.083  3.3765  1.5140  0.3257
 1831SOL     OW 5627   0.831   4.431   1.647 -0.4326  0.1948 -0.2084
 1831SOL    HW1 5628   0.858   4.352   1.694 -2.0029 -0.3616 -0.1904
 1831SOL    HW2 5629   0.824   4.498   1.715  0.6321  0.2846 -0.1803
 1832SOL     OW 5630   4.633   3.133   0.262 -0.1972  0.2195 -0.3206
 1832SOL    HW1 5631   4.542   3.133   0.293 -0.0579  0.9127  0.1180
 1832SOL    HW2 5632   4.628   3.171   0.174 -0.4280 -0.5037 -0.6266
 1833SOL     OW 5633   2.182   3.136   3.414 -0.1490 -0.1777  0.6673
 1833SOL    HW1 5634   2.187   3.045   3.441  0.2332 -0.1796  0.5922
 1833SOL    HW2 5635   2.273   3.162   3.399 -0.3997 -0.6514 -2.1901
 1834SOL     OW 5636   3.558   2.249   0.194 -0.3789  0.4803 -0.0259
 1834SOL    HW1 5637   3.488   2.311   0.172  1.7367  2.8429 -0.4350
 1834SOL    HW2 5638   3.601   2.286   0.271  0.6440 -0.7511  0.0322
 1835SOL     OW 5639   5.021   4.389   2.087 -0.2471 -0.1612 -0.8018
 1835SOL    HW1 5640   4.969   4.313   2.059  0.7715 -0.3127 -2.4049
 1835SOL    HW2 5641   5.056   4.426   2.006  1.3697  0.5025  0.1438
 1836SOL     OW 5642   3.241   1.195   2.690  0.2532 -0.2494 -0.2439
 1836SOL    HW1 5643   3.333   1.217   2.682  0.6530 -2.2374 -2.3715
 1836SOL    HW2 5644   3.236   1.104   2.659 -2.4692 -0.0529 -0.6003
 1837SOL     OW 5645   2.764   4.165   1.262 -0.4392  0.6261  0.0917
 1837SOL    HW1 5646   2.855   4.146   1.241 -0.0440  1.0880  1.2875
 1837SOL    HW2 5647   2.727   4.081   1.290 -0.5965  0.2911 -1.0764
 1838SOL     OW 5648   4.037   4.856   4.166 -0.3462 -0.7221  0.3095
 1838SOL    HW1 5649   4.045   4.863   4.071 -2.0032 -0.4817  0.1522
 1838SOL    HW2 5650   4.112   4.904   4.201  1.7227 -2.9026 -0.8504
 1839SOL     OW 5651   1.681   0.187   3.130 -0.0561 -0.2256 -0.8916
 1839SOL    HW1 5652   1.661   0.273   3.167 -0.2577 -0.3824 -0.6279
 1839SOL    HW2 5653   1.712   0.206   3.042 -0.0275  0.1229 -0.8106
 1840SOL     OW 5654   0.771   1.672   4.287 -0.1983  0.1296  0.2108
 1840SOL    HW1 5655   0.736   1.712   4.208  0.6606  0.8881  0.1947
 1840SOL    HW2 5656   0.751   1.579   4.279 -2.9422  0.6147  0.6081
 1841SOL     OW 5657   3.708   0.524   4.020 -0.2105  0.0396  0.7954
 1841SOL    HW1 5658   3.659   0.572   4.087 -0.6125 -0.1570  0.6491
 1841SOL    HW2 5659   3.640   0.478   3.970  0.2313 -1.4361  1.5257
 1842SOL     OW 5660   0.312   3.145   5.046  0.4268  0.0484 -0.0142
 1842SOL    HW1 5661   0.337   3.103   4.964  0.3601  0.2327 -0.1300
 1842SOL    HW2 5662   0.278   3.231   5.020  0.4381  0.1221  0.2083
 1843SOL     OW 5663   4.530   0.259   2.305 -0.4708 -0.3160 -0.1217
 1843SOL    HW1 5664   4.461   0.297   2.359 -0.5671  0.9158 -1.0845
 1843SOL    HW2 5665   4.524   0.304   2.221  1.7702  0.1644 -0.1039
 1844SOL     OW 5666   4.190   4.921   0.696 -0.8441  0.1837  0.2383
 1844SOL    HW1 5667   4.133   4.861   0.743 -0.4687 -0.7203 -0.4133
 1844SOL    HW2 5668   4.274   4.915   0.742 -0.9641  0.6644  0.5259
 1845SOL     OW 5669   0.693   0.577   3.224  0.1948 -0.4437  0.2139
 1845SOL    HW1 5670   0.641   0.618   3.154  0.7300  0.9917  0.6140
 1845SOL    HW2 5671   0.695   0.642   3.293  1.5407 -0.9395  0.6782
 1846SOL     OW 5672   4.801   0.207   3.317  0.3420  0.3742  0.5142
 1846SOL    HW1 5673   4.724   0.263   3.323 -0.3795 -0.6485  1.0048
 1846SOL    HW2 5674   4.828   0.194   3.408  2.6549  2.7708  0.2986
 1847SOL     OW 5675   4.443   2.960   1.956  0.1327  0.8013  0.3411
 1847SOL    HW1 5676   4.468   2.903   1.883  1.3184  2.1506 -0.3677
 1847SOL    HW2 5677   4.348   2.967   1.949  0.2674  1.3915 -1.4973
 1848SOL     OW 5678   3.583   3.181   3.931 -0.0494  0.9926 -0.1034
 1848SOL    HW1 5679   3.564   3.272   3.953  0.0845  0.7832  0.8874
 1848SOL    HW2 5680   3.507   3.133   3.963  0.0973  0.6962 -0.2028
 1849SOL     OW 5681   4.026   4.794   2.835 -0.1809  0.7361  0.4634
 1849SOL    HW1 5682   4.073   4.877   2.832  1.2818 -0.0904 -0.5581
 1849SOL    HW2 5683   3.933   4.819   2.830  0.2797  2.2526 -2.6639
 1850SOL     OW 5684   4.871   2.926   4.085  0.4611  0.4900 -0.0062
 1850SOL    HW1 5685   4.857   2.947   3.993  1.6538 -2.3278 -0.9300
 1850SOL    HW2 5686   4.783   2.919   4.122 -0.1690  5.8792  0.3699
 1851SOL     OW 5687   2.693   4.412   1.370 -0.0621 -0.0051  0.4246
 1851SOL    HW1 5688   2.744   4.355   1.313  0.5338  1.3105 -0.4108
 1851SOL    HW2 5689   2.720   4.501   1.346 -1.0907  0.6511  1.5491
 1852SOL     OW 5690   1.121   4.354   1.956 -0.7807  0.4887  0.7076
 1852SOL    HW1 5691   1.051   4.302   1.917 -1.0159  1.1787  0.1664
 1852SOL    HW2 5692   1.096   4.363   2.048 -1.2658  0.4989  0.5802
 1853SOL     OW 5693   0.680   4.524   0.743  0.0002 -0.0295 -0.0338
 1853SOL    HW1 5694   0.701   4.518   0.836 -1.8120  1.4329  0.5265
 1853SOL    HW2 5695   0.626   4.602   0.735 -0.1952 -0.3102 -2.2837
 1854SOL     OW 5696   1.815   0.200   0.192  0.5963  0.4028 -0.1717
 1854SOL    HW1 5697   1.847   0.120   0.235 -0.0080  1.1638  1.8181
 1854SOL    HW2 5698   1.852   0.196   0.104  0.4436 -2.1378 -0.2024
 1855SOL     OW 5699   3.024   2.299   3.741 -0.9205  0.1544 -0.1498
 1855SOL    HW1 5700   2.972   2.376   3.764 -3.0939 -1.4122  0.4551
 1855SOL    HW2 5701   3.057   2.267   3.825  3.5793  2.5889 -0.6142
 1856SOL     OW 5702   4.687   1.760   4.050  0.4195  0.5173 -0.2884
 1856SOL    HW1 5703   4.595   1.733   4.054  0.5801 -0.6726 -2.7144
 1856SOL    HW2 5704   4.692   1.814   3.971  1.7105  1.0362  0.1247
 1857SOL     OW 5705   0.247   4.029   0.657  0.6794 -0.5764  0.3245
 1857SOL    HW1 5706   0.286   4.001   0.574 -1.2920 -3.1488  0.1267
 1857SOL    HW2 5707   0.164   4.069   0.633  0.9429  0.3842  0.9742
 1858SOL     OW 5708   4.029   2.405   3.303 -0.2153  0.3825  0.5453
 1858SOL    HW1 5709   4.016   2.500   3.309 -0.0623  0.3835  0.8659
 1858SOL    HW2 5710   4.056   2.390   3.212 -0.1526  0.6562  0.5186
 1859SOL     OW 5711   2.395   0.635   4.480  0.3950  0.7417 -0.5106
 1859SOL    HW1 5712   2.464   0.594   4.428  0.1112  0.1736 -0.4584
 1859SOL    HW2 5713   2.329   0.661   4.416 -0.4846 -0.9994 -0.3793
 1860SOL     OW 5714   3.830   3.127   1.091  0.3423 -0.3381 -0.1426
 1860SOL    HW1 5715   3.866   3.044   1.059  1.2950  0.9925 -2.8289
 1860SOL    HW2 5716   3.907   3.180   1.112 -0.2600 -0.2371  2.0327
 1861SOL     OW 5717   0.620   0.823   3.359  0.2355 -0.3127  0.0025
 1861SOL    HW1 5718   0.625   0.909   3.319 -0.6508 -0.1900  0.1364
 1861SOL    HW2 5719   0.653   0.836   3.448 -0.1253 -0.0608  0.0993
 1862SOL     OW 5720   2.968   3.151   0.775  0.6033  0.2432  0.4378
 1862SOL    HW1 5721   2.995   3.213   0.842  1.5043 -0.2848  0.5875
 1862SOL    HW2 5722   2.932   3.077   0.824 -0.4445  0.6232  0.2616
 1863SOL     OW 5723   1.801   1.277   2.182  0.2297  0.1927 -0.3566
 1863SOL    HW1 5724   1.810   1.293   2.276 -0.1530  1.6604 -0.5494
 1863SOL    HW2 5725   1.716   1.314   2.158 -0.1731 -1.1405 -1.0990
 1864SOL     OW 5726   2.935   4.461   1.734  0.6966 -0.0774  0.1680
 1864SOL    HW1 5727   2.937   4.553   1.761 -1.1536  0.2369 -0.6166
 1864SOL    HW2 5728   2.955   4.412   1.813  2.3000  0.9758  0.4798
 1865SOL     OW 5729   3.887   0.650   0.587  0.0968  0.1907 -0.0207
 1865SOL    HW1 5730   3.873   0.697   0.505  1.1886 -0.1998 -0.4575
 1865SOL    HW2 5731   3.894   0.718   0.653  1.9283  0.7044 -0.6872
 1866SOL     OW 5732   1.300   1.644   0.182 -0.0038 -0.1496 -0.1405
 1866SOL    HW1 5733   1.352   1.650   0.263  0.9969 -1.1148 -0.6915
 1866SOL    HW2 5734   1.358   1.676   0.114 -0.6627  0.1652 -0.5570
 1867SOL     OW 5735   2.784   4.745   5.018  0.2317 -0.0489  0.5822
 1867SOL    HW1 5736   2.691   4.765   5.006  0.1916 -0.3193  0.4443
 1867SOL    HW2 5737   2.810   4.799   5.094  0.3236  1.1408 -0.2590
 1868SOL     OW 5738   1.757   4.451   0.132  0.2902 -1.0320 -0.4695
 1868SOL    HW1 5739   1.711   4.496   0.062 -0.6804  0.6660  1.1913
 1868SOL    HW2 5740   1.804   4.520   0.179  0.3601 -2.0194  0.9737
 1869SOL     OW 5741   3.732   4.741   2.777  0.0821 -0.1881 -0.2238
 1869SOL    HW1 5742   3.734   4.689   2.857  0.5294 -0.0071 -0.1136
 1869SOL    HW2 5743   3.709   4.829   2.807 -1.2423 -0.4244 -0.4724
 1870SOL     OW 5744   2.175   2.839   3.419  0.0962  0.5686 -0.0549
 1870SOL    HW1 5745   2.269   2.823   3.416  0.3969  1.3344  2.5077
 1870SOL    HW2 5746   2.141   2.770   3.476 -1.0443 -0.0931 -1.4657
 1871SOL     OW 5747   3.980   1.885   4.895  0.3037  0.3773 -0.1277
 1871SOL    HW1 5748   3.918   1.872   4.967 -0.2323  3.0943  0.0318
 1871SOL    HW2 5749   4.033   1.959   4.923  1.3764  0.2483 -1.7210
 1872SOL     OW 5750   1.073   4.643   4.526 -0.3397 -0.3171 -0.4039
 1872SOL    HW1 5751   1.056   4.551   4.504  1.0691 -1.1171  1.5708
 1872SOL    HW2 5752   1.004   4.692   4.480 -1.5374 -2.4071 -0.9655
 1873SOL     OW 5753   3.383   1.346   4.584 -0.1619  0.1366  0.8402
 1873SOL    HW1 5754   3.411   1.267   4.630 -1.9597 -1.0157  0.0486
 1873SOL    HW2 5755   3.391   1.416   4.649  1.4842 -0.6598  1.5429
 1874SOL     OW 5756   0.552   1.499   4.567  0.1817  0.1998 -0.0263
 1874SOL    HW1 5757   0.482   1.453   4.614  1.0424 -0.9953  0.1422
 1874SOL    HW2 5758   0.632   1.468   4.609  0.8465  1.1114 -0.5975
 1875SOL     OW 5759   2.569   4.192   4.571  0.4171  0.2065  0.3318
 1875SOL    HW1 5760   2.635   4.248   4.612 -0.1934 -0.5277  2.4755
 1875SOL    HW2 5761   2.527   4.146   4.644 -2.3338  0.4679 -0.9247
 1876SOL     OW 5762   2.843   4.807   4.726  0.9028 -0.0385  0.3179
 1876SOL    HW1 5763   2.800   4.840   4.805  0.0978 -0.4889  0.0824
 1876SOL    HW2 5764   2.822   4.870   4.658 -1.1636 -1.2802 -0.2794
 1877SOL     OW 5765   1.131   3.854   2.652  0.0604 -0.2619 -0.3805
 1877SOL    HW1 5766   1.211   3.907   2.644  0.2563 -0.6982 -1.4994
 1877SOL    HW2 5767   1.077   3.882   2.577  0.5033 -2.1873 -1.4668
 1878SOL     OW 5768   2.090   0.152   3.667 -0.6336 -0.4005 -0.0006
 1878SOL    HW1 5769   2.170   0.146   3.718 -0.5958  3.9588  0.8762
 1878SOL    HW2 5770   2.110   0.109   3.584  1.6943 -1.6101  1.1089
 1879SOL     OW 5771   0.449   3.276   4.476 -0.2698  0.7848 -0.3220
 1879SOL    HW1 5772   0.466   3.302   4.386  0.0707 -2.3142 -1.2521
 1879SOL    HW2 5773   0.528   3.229   4.503 -1.8648 -1.8579  0.1082
 1880SOL     OW 5774   0.031   3.074   4.723 -0.2956  0.1712 -0.0728
 1880SOL    HW1 5775   0.095   3.060   4.653 -1.0249  3.6225 -1.6259
 1880SOL    HW2 5776  -0.050   3.035   4.689 -0.2306  0.2912 -0.3696
 1881SOL     OW 5777   1.807   1.007   0.277  0.1624  0.4784 -0.1453
 1881SOL    HW1 5778   1.801   1.069   0.349 -0.8746 -0.2331  0.4117
 1881SOL    HW2 5779   1.734   0.946   0.291  0.7517 -0.4817 -1.0325
 1882SOL     OW 5780   1.740   0.032   1.319  0.5676 -0.0747 -0.4333
 1882SOL    HW1 5781   1.679   0.095   1.358  1.4153  0.4936  0.0165
 1882SOL    HW2 5782   1.749   0.059   1.228  2.0977  1.4272  0.1224
 1883SOL     OW 5783   1.177   2.012   2.059 -0.1317 -0.3760  0.7351
 1883SOL    HW1 5784   1.118   1.965   2.001 -1.1686  0.1195  1.3720
 1883SOL    HW2 5785   1.196   2.094   2.013  0.5020 -0.7634  0.2906
 1884SOL     OW 5786   4.014   0.427   0.499  0.2184  0.0377  0.0251
 1884SOL    HW1 5787   4.047   0.489   0.434 -1.1077 -0.0836 -0.8046
 1884SOL    HW2 5788   3.988   0.482   0.573  2.5296  0.1097  0.8797
 1885SOL     OW 5789   3.932   4.911   0.468  0.5467 -0.2624  0.1777
 1885SOL    HW1 5790   4.006   4.897   0.410  0.2530  0.2412 -0.3258
 1885SOL    HW2 5791   3.855   4.889   0.416  0.3790 -1.9052  1.0527
 1886SOL     OW 5792   0.615   3.373   3.004  0.2265  0.8762  0.1696
 1886SOL    HW1 5793   0.649   3.397   3.090 -0.1708  1.3888  0.1921
 1886SOL    HW2 5794   0.620   3.277   3.002  3.8654  0.9755 -0.7473
 1887SOL     OW 5795   4.674   4.035   3.929 -0.2690 -0.2965 -0.8182
 1887SOL    HW1 5796   4.667   4.082   4.013 -0.0791 -2.8950  0.7586
 1887SOL    HW2 5797   4.768   4.020   3.918 -0.4259 -1.6036 -0.4924
 1888SOL     OW 5798   1.110   4.042   4.334 -0.0265 -0.0197 -0.2252
 1888SOL    HW1 5799   1.106   4.075   4.244  0.7816  0.5660 -0.0570
 1888SOL    HW2 5800   1.064   4.108   4.386 -0.3107 -0.2513 -0.1847
 1889SOL     OW 5801   0.758   3.719   4.778 -0.7396 -0.4408  0.6159
 1889SOL    HW1 5802   0.725   3.681   4.696  1.6100  0.0948 -0.6774
 1889SOL    HW2 5803   0.803   3.798   4.751 -2.0229  1.1354  2.7940
 1890SOL     OW 5804   3.230   3.082   3.086  0.0696  0.0955  0.5252
 1890SOL    HW1 5805   3.239   3.170   3.050  0.1044 -0.2122 -0.2457
 1890SOL    HW2 5806   3.224   3.025   3.009 -1.1357 -0.4659  1.0008
 1891SOL     OW 5807   2.402   1.162   4.654 -0.4778  0.1121  0.6526
 1891SOL    HW1 5808   2.350   1.085   4.679  0.2377 -0.0007  1.8798
 1891SOL    HW2 5809   2.491   1.129   4.648 -0.3899  0.5200 -0.4273
 1892SOL     OW 5810   4.326   2.386   4.759  0.2180  0.2957 -0.2910
 1892SOL    HW1 5811   4.279   2.303   4.768 -2.1071  1.5086 -0.3681
 1892SOL    HW2 5812   4.371   2.379   4.674  0.2383 -0.9521 -0.1929
 1893SOL     OW 5813   2.832   4.298   0.632  0.0986 -0.6943 -0.4797
 1893SOL    HW1 5814   2.910   4.352   0.621  0.1255 -0.6094  0.0945
 1893SOL    HW2 5815   2.866   4.213   0.661 -0.0091 -0.7051 -0.3827
 1894SOL     OW 5816   4.641   4.988   4.277  0.0304 -0.2663 -0.5366
 1894SOL    HW1 5817   4.635   4.917   4.342 -0.3593 -1.3896 -1.7669
 1894SOL    HW2 5818   4.642   4.944   4.193 -3.3847  1.2385 -1.5386
 1895SOL     OW 5819   1.697   2.764   1.233  0.0520  0.0134 -0.0958
 1895SOL    HW1 5820   1.614   2.743   1.275  0.1763  1.8509  1.1753
 1895SOL    HW2 5821   1.763   2.718   1.286  0.0525  0.8102  0.6106
 1896SOL     OW 5822   3.050   2.301   4.664  0.9352 -0.4247  0.9292
 1896SOL    HW1 5823   3.112   2.231   4.685 -0.3779 -2.1031 -0.5231
 1896SOL    HW2 5824   3.087   2.342   4.586  1.0499 -0.3318  1.0313
 1897SOL     OW 5825   0.444   4.748   2.240 -0.3493  0.1763  0.4814
 1897SOL    HW1 5826   0.373   4.690   2.214 -0.3313 -0.3016  1.4344
 1897SOL    HW2 5827   0.405   4.806   2.306 -0.0407  0.3933  0.4752
 1898SOL     OW 5828   2.752   3.476   1.422  0.7467  0.3659  0.3155
 1898SOL    HW1 5829   2.710   3.398   1.385  1.7276 -0.0591  0.0554
 1898SOL    HW2 5830   2.714   3.484   1.509 -0.1845  0.2540 -0.0663
 1899SOL     OW 5831   2.522   2.767   2.914 -0.5037  0.0743 -0.7835
 1899SOL    HW1 5832   2.513   2.851   2.958 -0.3027 -0.1596 -0.2902
 1899SOL    HW2 5833   2.589   2.720   2.964 -2.0505 -1.1875  0.2196
 1900SOL     OW 5834   0.766   1.651   3.891 -0.3926 -0.0421 -0.1625
 1900SOL    HW1 5835   0.800   1.673   3.804  0.5719  2.3750  0.7319
 1900SOL    HW2 5836   0.685   1.701   3.898 -0.6712 -0.5381  0.1799
 1901SOL     OW 5837   1.805   3.388   0.106  0.2033 -0.2547  0.2929
 1901SOL    HW1 5838   1.738   3.344   0.054 -1.6916 -2.5475  4.1825
 1901SOL    HW2 5839   1.764   3.472   0.130  0.6714  0.3597 -0.9758
 1902SOL     OW 5840   4.840   4.669   0.897  0.2203 -0.4050 -0.6269
 1902SOL    HW1 5841   4.793   4.619   0.830  1.0083 -0.7136 -0.9628
 1902SOL    HW2 5842   4.851   4.607   0.970  0.2322 -0.3810 -0.6083
 1903SOL     OW 5843   5.043   4.186   4.707 -0.3004 -0.4039 -0.0654
 1903SOL    HW1 5844   4.960   4.137   4.707 -0.2356 -0.5341  0.7430
 1903SOL    HW2 5845   5.074   4.181   4.616 -1.7256  0.6082 -0.6320
 1904SOL     OW 5846   4.856   1.790   3.098  0.5745 -0.4285  0.5678
 1904SOL    HW1 5847   4.935   1.843   3.095  0.2077  0.1214  0.4120
 1904SOL    HW2 5848   4.831   1.778   3.007  0.2324 -0.2184  0.6312
 1905SOL     OW 5849   4.542   0.915   4.768  0.7544  0.0402 -0.0273
 1905SOL    HW1 5850   4.606   0.954   4.708  0.9339  0.9054  0.7198
 1905SOL    HW2 5851   4.494   0.852   4.713 -0.6534  2.4190 -1.7121
 1906SOL     OW 5852   1.472   0.884   1.487 -0.0837 -0.0667  0.6501
 1906SOL    HW1 5853   1.529   0.950   1.525 -1.0680  1.3953 -0.3459
 1906SOL    HW2 5854   1.509   0.867   1.400 -1.9987  2.1337 -0.7040
 1907SOL     OW 5855   3.626   1.019   4.268 -0.0871  0.5279  0.4469
 1907SOL    HW1 5856   3.556   1.048   4.209  0.7016  0.7406 -0.4071
 1907SOL    HW2 5857   3.655   1.098   4.312 -0.1476  0.4958  0.5451
 1908SOL     OW 5858   3.326   0.029   3.201 -0.0970 -0.0578 -0.6822
 1908SOL    HW1 5859   3.256   0.094   3.211 -0.3943 -0.4145 -0.3941
 1908SOL    HW2 5860   3.291  -0.035   3.140 -0.4368 -0.7847  0.2536
 1909SOL     OW 5861   0.353   3.448   2.960 -0.1331  0.2721 -1.0605
 1909SOL    HW1 5862   0.441   3.449   2.997 -1.2421 -1.5572  1.9443
 1909SOL    HW2 5863   0.347   3.363   2.916 -0.6579  0.0198 -0.5086
 1910SOL     OW 5864   1.970   3.317   3.532 -0.0853  0.0572 -0.1389
 1910SOL    HW1 5865   1.993   3.225   3.545  3.5531  0.7909 -0.2441
 1910SOL    HW2 5866   2.007   3.362   3.609 -0.1536  1.6244 -0.9711
 1911SOL     OW 5867   4.276   4.711   4.313  0.1010  0.4282  0.4853
 1911SOL    HW1 5868   4.361   4.671   4.295 -0.2641 -0.3089  0.3641
 1911SOL    HW2 5869   4.224   4.694   4.235 -0.1709  0.8325  0.5760
 1912SOL     OW 5870   1.630   2.681   3.325  0.3442 -0.5404  1.0091
 1912SOL    HW1 5871   1.594   2.769   3.325 -2.1514 -1.4707  0.0977
 1912SOL    HW2 5872   1.587   2.637   3.398  0.2052 -1.4758  0.3820
 1913SOL     OW 5873   1.486   1.522   2.990  0.1062 -0.5262  0.2418
 1913SOL    HW1 5874   1.429   1.543   2.916  0.7983 -1.4406 -0.5847
 1913SOL    HW2 5875   1.434   1.545   3.068 -0.4325  0.9678 -0.5109
 1914SOL     OW 5876   3.496   1.968   4.719 -0.2977 -0.4320 -0.3628
 1914SOL    HW1 5877   3.504   1.955   4.624  0.5799 -2.0728 -0.0947
 1914SOL    HW2 5878   3.513   1.882   4.757 -2.4022 -0.2183  1.2243
 1915SOL     OW 5879   4.197   1.187   2.609 -0.6254  0.1615  0.1676
 1915SOL    HW1 5880   4.187   1.165   2.517 -0.6342 -1.0944  0.4537
 1915SOL    HW2 5881   4.108   1.183   2.645 -0.8738  2.3204 -0.0996
 1916SOL     OW 5882   5.008   2.138   3.166 -0.2078  0.3403  0.2468
 1916SOL    HW1 5883   4.956   2.199   3.217 -1.2909 -0.1920 -0.2034
 1916SOL    HW2 5884   5.041   2.190   3.092  2.0839  1.3486  1.8351
 1917SOL     OW 5885   2.883   3.497   4.486  0.2756  0.6955  0.2554
 1917SOL    HW1 5886   2.788   3.490   4.477  0.5094 -0.3693 -2.2684
 1917SOL    HW2 5887   2.901   3.473   4.577 -1.8872  1.5717  0.9691
 1918SOL     OW 5888   0.454   3.070   4.751  0.6354 -0.2667  0.1214
 1918SOL    HW1 5889   0.366   3.079   4.715  0.4682  2.0925  0.9418
 1918SOL    HW2 5890   0.461   2.977   4.774 -1.6638 -0.4918  0.1509
 1919SOL     OW 5891   3.739   1.337   0.737 -0.2532  0.2149  0.3062
 1919SOL    HW1 5892   3.685   1.368   0.664 -1.5326  0.1018  1.1740
 1919SOL    HW2 5893   3.725   1.242   0.739  0.9205  0.0092 -0.1754
 1920SOL     OW 5894   1.381   4.945   2.418 -0.0554  0.2451 -0.0244
 1920SOL    HW1 5895   1.318   5.006   2.378  0.1241  0.1339 -0.4903
 1920SOL    HW2 5896   1.382   4.969   2.510 -0.6565  0.3579 -0.0394
 1921SOL     OW 5897   4.884   2.431   4.028  0.2492  0.8821 -0.1421
 1921SOL    HW1 5898   4.792   2.405   4.017  0.0011  1.4873  0.5003
 1921SOL    HW2 5899   4.910   2.464   3.941 -0.0619  0.4913 -0.3882
 1922SOL     OW 5900   0.401   4.340   2.075 -0.2536  0.3679  0.1696
 1922SOL    HW1 5901   0.383   4.275   2.007  0.4000 -0.6759  0.9619
 1922SOL    HW2 5902   0.346   4.312   2.149 -0.3681  1.0326  0.3397
 1923SOL     OW 5903   1.580   0.070   2.013 -0.1727  0.2137  0.2957
 1923SOL    HW1 5904   1.529  -0.004   1.982  1.0137 -1.9373  3.0211
 1923SOL    HW2 5905   1.669   0.035   2.024 -0.2654  0.8256  5.0018
 1924SOL     OW 5906   2.357   3.335   2.426 -0.2520  0.2804 -0.1579
 1924SOL    HW1 5907   2.427   3.386   2.386 -0.0650  1.6572  1.7909
 1924SOL    HW2 5908   2.278   3.385   2.408 -0.3754  0.0959 -0.1302
 1925SOL     OW 5909   1.216   0.533   1.245 -0.3371  0.4827  0.5484
 1925SOL    HW1 5910   1.151   0.502   1.183  0.3647 -0.8595  0.4624
 1925SOL    HW2 5911   1.193   0.625   1.261 -0.5382  0.8469 -1.6523
 1926SOL     OW 5912   4.860   4.530   4.686 -0.1032  0.0398 -0.3191
 1926SOL    HW1 5913   4.801   4.458   4.662 -2.9525  1.8711  0.7686
 1926SOL    HW2 5914   4.805   4.591   4.735  3.0185  1.3327  1.8896
 1927SOL     OW 5915   2.907   0.683   1.527 -0.4162 -0.4324 -0.2647
 1927SOL    HW1 5916   2.881   0.598   1.490  0.3909 -1.4062  1.2641
 1927SOL    HW2 5917   2.855   0.689   1.608  0.2126  0.0903  0.1025
 1928SOL     OW 5918   2.830   2.165   4.370  0.5123  0.4052  0.6894
 1928SOL    HW1 5919   2.905   2.112   4.398  1.2207  0.7522 -0.5006
 1928SOL    HW2 5920   2.777   2.175   4.449  0.5215 -1.7982  1.0464
 1929SOL     OW 5921   4.178   0.845   3.408  0.5542  0.4680 -0.1378
 1929SOL    HW1 5922   4.152   0.804   3.491 -3.2794 -0.8179 -1.7436
 1929SOL    HW2 5923   4.169   0.939   3.424  0.3489  0.2655  1.0416
 1930SOL     OW 5924   3.981   3.987   2.119 -0.6905  0.2576  0.1268
 1930SOL    HW1 5925   4.059   4.043   2.117 -1.3886  1.2423 -1.9170
 1930SOL    HW2 5926   3.991   3.935   2.199  0.7123  2.2603  1.3385
 1931SOL     OW 5927   2.630   1.953   3.307 -0.0974 -0.4079  0.1923
 1931SOL    HW1 5928   2.587   1.992   3.383  0.5826  1.2438 -0.2227
 1931SOL    HW2 5929   2.723   1.959   3.326  0.0935  0.1904 -0.8211
 1932SOL     OW 5930   1.979   0.250   0.774 -0.0208  0.0721 -0.6341
 1932SOL    HW1 5931   2.008   0.341   0.777 -1.3911  0.5127  1.8338
 1932SOL    HW2 5932   2.060   0.199   0.786  0.4789  1.0467  0.3028
 1933SOL     OW 5933   0.246   0.475   0.154  0.2204  0.1615 -0.2895
 1933SOL    HW1 5934   0.187   0.401   0.149  0.7418 -0.3527  0.9776
 1933SOL    HW2 5935   0.327   0.439   0.190  0.0012  1.5998  1.8184
 1934SOL     OW 5936   0.471   3.785   3.386  0.2446 -0.2243  0.1863
 1934SOL    HW1 5937   0.416   3.859   3.359  1.1933  0.3130 -0.3678
 1934SOL    HW2 5938   0.410   3.720   3.420 -0.8442 -0.1001 -1.4062
 1935SOL     OW 5939   3.754   1.228   2.729  0.3389 -0.1230  0.1753
 1935SOL    HW1 5940   3.736   1.147   2.776  1.3038 -1.2399 -1.2888
 1935SOL    HW2 5941   3.678   1.241   2.673  0.4788 -0.3915 -0.0792
 1936SOL     OW 5942   4.448   3.746   1.407 -0.4068 -0.4627 -0.0384
 1936SOL    HW1 5943   4.358   3.716   1.390 -0.1369 -0.3784 -1.7386
 1936SOL    HW2 5944   4.440   3.840   1.419 -0.7148 -0.6323  1.2972
 1937SOL     OW 5945   2.022   1.517   3.306  0.1055 -0.8303  0.4405
 1937SOL    HW1 5946   1.930   1.504   3.328  0.5211 -2.8578  1.2822
 1937SOL    HW2 5947   2.064   1.535   3.390  0.2640  2.0576 -0.1660
 1938SOL     OW 5948   0.291   4.471   0.146 -0.3485  0.5640  0.7158
 1938SOL    HW1 5949   0.311   4.475   0.240  0.5052 -2.1972  0.7335
 1938SOL    HW2 5950   0.346   4.539   0.107  1.2468  0.0590  1.9674
 1939SOL     OW 5951   3.792   4.344   3.286  0.3748 -0.2437 -1.0345
 1939SOL    HW1 5952   3.859   4.336   3.354  0.8411 -2.4821 -1.6559
 1939SOL    HW2 5953   3.721   4.288   3.317  0.4552 -1.0208 -2.1909
 1940SOL     OW 5954   2.286   0.903   3.044 -0.3094  0.0576  0.0926
 1940SOL    HW1 5955   2.207   0.939   3.084  0.2032 -0.3567  1.5306
 1940SOL    HW2 5956   2.358   0.948   3.088  0.3194 -1.9376  1.2052
 1941SOL     OW 5957   1.733   0.627   1.395  0.6160  0.4310 -0.3376
 1941SOL    HW1 5958   1.785   0.704   1.420  0.7529  1.1650 -2.6333
 1941SOL    HW2 5959   1.774   0.596   1.314 -0.7612 -0.7832 -0.6101
 1942SOL     OW 5960   2.286   0.932   1.373  0.3472 -0.2460  0.5770
 1942SOL    HW1 5961   2.252   1.007   1.325 -1.0921  0.0139  1.9184
 1942SOL    HW2 5962   2.242   0.936   1.458  0.0066 -2.7422  0.5985
 1943SOL     OW 5963   0.383   3.141   0.721 -0.2822 -0.1169  0.4582
 1943SOL    HW1 5964   0.390   3.204   0.649 -0.1468  0.1712  0.7191
 1943SOL    HW2 5965   0.298   3.159   0.761 -0.6550 -0.7225 -0.0343
 1944SOL     OW 5966   1.208   4.603   2.491 -0.3668  0.2518  0.7812
 1944SOL    HW1 5967   1.248   4.640   2.413 -1.1935 -1.1196 -0.3321
 1944SOL    HW2 5968   1.245   4.515   2.497 -1.0330  0.0002  1.3937
 1945SOL     OW 5969   3.268   1.158   3.549  0.5268 -0.2846 -0.1363
 1945SOL    HW1 5970   3.294   1.233   3.496 -0.1988  0.2976  0.3056
 1945SOL    HW2 5971   3.204   1.111   3.495  0.4314 -0.1719 -0.1222
 1946SOL     OW 5972   2.282   0.749   2.032 -0.0749 -0.3217 -0.5767
 1946SOL    HW1 5973   2.318   0.686   1.969  0.8829 -0.7732  0.3825
 1946SOL    HW2 5974   2.219   0.800   1.981 -1.6659 -2.7037 -1.1545
 1947SOL     OW 5975   1.078   3.538   0.162  0.1279 -0.1361  0.2685
 1947SOL    HW1 5976   1.131   3.481   0.106 -2.2775 -2.3721  0.1057
 1947SOL    HW2 5977   1.038   3.479   0.226 -0.4654  1.7679  1.7390
 1948SOL     OW 5978   2.341   2.052   4.361  0.3541  0.2557 -0.3636
 1948SOL    HW1 5979   2.409   2.065   4.295 -0.7545  1.1230 -1.3883
 1948SOL    HW2 5980   2.275   2.119   4.341 -2.4714 -2.6527 -1.5808
 1949SOL     OW 5981   3.693   2.872   4.683  0.3801  0.1700  0.1615
 1949SOL    HW1 5982   3.708   2.791   4.635  2.9562  0.8138 -0.2722
 1949SOL    HW2 5983   3.601   2.894   4.665  0.2709 -1.4445 -1.5653
 1950SOL     OW 5984   4.611   4.502   1.673 -0.2165  0.4313  0.2383
 1950SOL    HW1 5985   4.597   4.418   1.715  1.0352  1.6903  3.4980
 1950SOL    HW2 5986   4.689   4.489   1.619 -0.4153 -0.6367  0.1943
 1951SOL     OW 5987   0.165   0.200   1.636 -0.0719 -0.4167 -0.6112
 1951SOL    HW1 5988   0.175   0.291   1.663 -0.4798 -0.7342  0.6727
 1951SOL    HW2 5989   0.105   0.203   1.561 -0.2368  0.3555 -0.4525
 1952SOL     OW 5990   2.160   4.402   4.111 -0.0828  0.0317 -0.0314
 1952SOL    HW1 5991   2.235   4.418   4.168  0.1118 -1.3315  0.1309
 1952SOL    HW2 5992   2.086   4.392   4.172 -0.2743  0.6326 -0.1531
 1953SOL     OW 5993   3.187   4.059   3.932 -0.1952 -0.2061 -0.6110
 1953SOL    HW1 5994   3.168   4.095   3.845  0.6366 -0.9281 -1.1029
 1953SOL    HW2 5995   3.238   4.127   3.975 -2.2856  1.0077  0.0789
 1954SOL     OW 5996   2.435   0.689   2.935 -0.4862  0.2187 -1.0627
 1954SOL    HW1 5997   2.407   0.780   2.920  0.2255  0.3967 -1.3393
 1954SOL    HW2 5998   2.389   0.638   2.869 -0.2891  0.4896 -1.4120
 1955SOL     OW 5999   3.354   1.214   1.305  0.4518 -0.0894  0.6231
 1955SOL    HW1 6000   3.422   1.154   1.273 -0.7933 -1.2871  0.1016
 1955SOL    HW2 6001   3.284   1.208   1.239  0.9628  3.2969 -0.3906
 1956SOL     OW 6002   1.673   1.800   4.113 -0.1276  0.3631  0.7584
 1956SOL    HW1 6003   1.711   1.716   4.139 -1.0729 -0.1583  0.5150
 1956SOL    HW2 6004   1.748   1.858   4.101  0.9467 -1.4886 -2.8897
 1957SOL     OW 6005   0.229   3.002   2.418 -0.5596  0.1541 -0.5085
 1957SOL    HW1 6006   0.196   3.079   2.371 -3.5111 -1.4164 -1.2562
 1957SOL    HW2 6007   0.314   3.030   2.452 -1.5029  3.7576 -0.6381
 1958SOL     OW 6008   3.636   4.069   1.047 -0.4531  0.0504  0.2339
 1958SOL    HW1 6009   3.662   4.086   0.957  1.6092  0.9193  0.9366
 1958SOL    HW2 6010   3.718   4.058   1.094 -1.4954 -3.3792  1.5200
 1959SOL     OW 6011   4.425   0.870   3.944 -0.1399 -0.3751 -0.1721
 1959SOL    HW1 6012   4.445   0.954   3.902 -2.1388 -0.0355 -0.5152
 1959SOL    HW2 6013   4.447   0.884   4.036 -0.4791  0.5563 -0.2201
 1960SOL     OW 6014   4.370   2.099   4.727  0.7140 -0.3112  0.0690
 1960SOL    HW1 6015   4.452   2.083   4.774  0.3243 -1.1057  0.4934
 1960SOL    HW2 6016   4.381   2.051   4.644  1.2097  0.6976 -0.4626
 1961SOL     OW 6017   4.613   4.837   4.738  0.1537 -0.1628  0.5710
 1961SOL    HW1 6018   4.549   4.871   4.801  0.5892  0.3347  0.7506
 1961SOL    HW2 6019   4.662   4.914   4.710 -0.6464 -0.2277 -1.1102
 1962SOL     OW 6020   2.955   2.954   2.073 -0.1824 -0.0379 -0.5209
 1962SOL    HW1 6021   2.945   2.882   2.011 -1.8994 -2.3991  2.2813
 1962SOL    HW2 6022   2.873   3.003   2.067  0.0960  0.3977 -0.8532
 1963SOL     OW 6023   2.010   0.414   3.772  0.0272 -0.3671  0.5267
 1963SOL    HW1 6024   2.018   0.344   3.708  3.6447  0.6449 -0.3485
 1963SOL    HW2 6025   2.075   0.392   3.839 -0.4820  0.9319  1.4751
 1964SOL     OW 6026   3.393   2.343   4.307  0.3290 -0.0581  0.2114
 1964SOL    HW1 6027   3.420   2.312   4.221  1.6678 -1.7676  1.1732
 1964SOL    HW2 6028   3.462   2.403   4.335 -0.2035  0.6506  0.0362
 1965SOL     OW 6029   0.537   1.368   5.010  0.2416 -0.0369  0.0297
 1965SOL    HW1 6030   0.574   1.454   5.032  1.6270 -1.0994  2.1510
 1965SOL    HW2 6031   0.480   1.347   5.084  1.2694 -1.6654  0.4125
 1966SOL     OW 6032   1.119   2.970   4.810  0.0103  0.6131  0.4555
 1966SOL    HW1 6033   1.129   2.875   4.804 -0.1861  0.6776 -1.8409
 1966SOL    HW2 6034   1.193   3.004   4.760 -1.8221  1.5350 -1.7863
 1967SOL     OW 6035   4.201   2.251   0.320 -0.5966  0.0728  0.2152
 1967SOL    HW1 6036   4.248   2.207   0.392  1.2254 -0.1795 -1.0585
 1967SOL    HW2 6037   4.147   2.182   0.282  0.5623 -0.5605 -0.3646
 1968SOL     OW 6038   4.541   3.193   2.597 -0.2297 -0.0343  0.6349
 1968SOL    HW1 6039   4.472   3.198   2.663 -0.2697  1.5239  0.5068
 1968SOL    HW2 6040   4.598   3.268   2.615  0.1433  0.0295 -0.6768
 1969SOL     OW 6041   0.821   0.650   2.034  0.5524  0.4496  0.2207
 1969SOL    HW1 6042   0.733   0.686   2.021  0.3292 -0.3284 -0.5241
 1969SOL    HW2 6043   0.810   0.582   2.101  0.1616 -1.0605 -1.2989
 1970SOL     OW 6044   1.165   4.008   0.263  0.8993  0.9424 -0.0798
 1970SOL    HW1 6045   1.127   3.920   0.267  4.7747 -0.9237  0.3804
 1970SOL    HW2 6046   1.112   4.059   0.325 -0.2230 -1.6209  1.2534
 1971SOL     OW 6047   1.351   1.565   0.930  0.0597 -0.4299  0.3234
 1971SOL    HW1 6048   1.406   1.519   0.867  0.5277  0.1338  0.3134
 1971SOL    HW2 6049   1.339   1.652   0.892 -0.8881 -0.5595  0.3020
 1972SOL     OW 6050   2.446   5.031   3.860  0.2007 -0.4111  0.1026
 1972SOL    HW1 6051   2.439   4.936   3.854  1.4746 -0.4321 -1.9772
 1972SOL    HW2 6052   2.538   5.048   3.880  0.6158  0.3976 -2.2227
 1973SOL     OW 6053   3.500  -0.011   4.950  0.2880  0.0578 -0.0160
 1973SOL    HW1 6054   3.541   0.051   4.889  0.8053 -0.9214 -0.6974
 1973SOL    HW2 6055   3.406   0.007   4.944  0.4274  0.7242 -0.2564
 1974SOL     OW 6056   4.386   2.990   2.901 -0.1757 -0.2440  0.5711
 1974SOL    HW1 6057   4.391   3.085   2.897  1.8267 -0.3386  0.1128
 1974SOL    HW2 6058   4.424   2.967   2.986  2.7653 -0.7682 -0.7887
 1975SOL     OW 6059   3.126   2.674   3.612  0.7462  0.5988 -0.2727
 1975SOL    HW1 6060   3.152   2.766   3.603  0.9603  0.4540 -1.3265
 1975SOL    HW2 6061   3.209   2.626   3.606  0.3779  0.1319 -3.6208
 1976SOL     OW 6062   1.075   3.755   0.323  0.2769  0.0415  0.0550
 1976SOL    HW1 6063   1.003   3.750   0.385 -0.4528  0.2412 -0.7500
 1976SOL    HW2 6064   1.072   3.671   0.276 -1.3068  1.1358 -1.9558
 1977SOL     OW 6065   2.562   1.538   3.721  0.6620  0.1697 -0.2734
 1977SOL    HW1 6066   2.500   1.466   3.737  2.6177 -1.7732 -0.9177
 1977SOL    HW2 6067   2.648   1.500   3.739  1.8603  2.0413 -1.6749
 1978SOL     OW 6068   2.801   4.756   3.211  0.6668  0.7822 -0.0118
 1978SOL    HW1 6069   2.836   4.713   3.290  0.2388  0.9091  0.2475
 1978SOL    HW2 6070   2.856   4.723   3.140 -0.6933 -1.5394 -0.0846
 1979SOL     OW 6071   4.964   0.738   3.060 -0.0480  0.0078 -0.5550
 1979SOL    HW1 6072   4.903   0.695   3.120 -0.4306  0.7693 -0.3754
 1979SOL    HW2 6073   5.050   0.726   3.101 -0.3018  0.4850  0.1366
 1980SOL     OW 6074   0.298   4.053   4.872  0.1567  0.3784  0.6542
 1980SOL    HW1 6075   0.342   4.125   4.918  2.7412 -1.4586  1.2193
 1980SOL    HW2 6076   0.355   4.032   4.799  0.0932 -1.8511  1.1801
 1981SOL     OW 6077   1.580   4.886   0.083 -0.3394  0.5335 -0.0834
 1981SOL    HW1 6078   1.595   4.835   0.004  0.1617  1.1130 -0.3739
 1981SOL    HW2 6079   1.643   4.851   0.147  2.3006  2.8198 -1.2366
 1982SOL     OW 6080   2.309   4.888   0.345 -0.2433 -0.2744  0.1276
 1982SOL    HW1 6081   2.325   4.907   0.438  2.9116 -1.6241 -0.0199
 1982SOL    HW2 6082   2.287   4.795   0.343  0.7459 -0.5098 -0.5238
 1983SOL     OW 6083   2.803   0.918   1.870 -0.4003 -0.1183  0.2942
 1983SOL    HW1 6084   2.725   0.935   1.922 -3.0261 -1.8530 -2.7452
 1983SOL    HW2 6085   2.774   0.926   1.780  3.2350  0.0861 -1.0146
 1984SOL     OW 6086   0.836   3.562   2.859  0.1616 -1.0608 -0.1771
 1984SOL    HW1 6087   0.839   3.613   2.778  0.6562  0.0519  0.5290
 1984SOL    HW2 6088   0.749   3.579   2.894 -0.7151 -2.8903 -1.2845
 1985SOL     OW 6089   3.375   1.207   3.795 -0.2566 -0.3387  0.2375
 1985SOL    HW1 6090   3.328   1.179   3.716  0.2040 -0.6102  0.0556
 1985SOL    HW2 6091   3.315   1.267   3.839 -1.0815 -1.2685  0.4033
 1986SOL     OW 6092   2.412   1.806   0.255 -0.1277  0.1650 -0.2968
 1986SOL    HW1 6093   2.500   1.770   0.257  0.3026  1.1781 -0.2872
 1986SOL    HW2 6094   2.359   1.743   0.304  0.5910 -0.4381 -0.2788
 1987SOL     OW 6095   1.471   4.979   4.687  0.5064 -0.2882 -0.2605
 1987SOL    HW1 6096   1.526   5.026   4.624 -1.4390  0.4838 -1.4711
 1987SOL    HW2 6097   1.533   4.933   4.743  2.3288 -1.2948 -2.9272
 1988SOL     OW 6098   4.863   3.935   4.128  0.2639 -0.3314 -0.4736
 1988SOL    HW1 6099   4.884   4.029   4.136  1.6452 -0.6710  0.1503
 1988SOL    HW2 6100   4.924   3.892   4.188 -1.9099 -1.4781  1.0283
 1989SOL     OW 6101   4.944   2.765   0.016  0.7398 -0.4761  0.0887
 1989SOL    HW1 6102   4.942   2.860   0.027 -1.7390 -0.5062  0.5560
 1989SOL    HW2 6103   5.000   2.734   0.087  1.5423  0.6140 -0.0392
 1990SOL     OW 6104   4.813   1.970   1.444 -0.0952  0.2807 -0.4746
 1990SOL    HW1 6105   4.730   2.009   1.471 -1.9233 -3.2399 -0.4022
 1990SOL    HW2 6106   4.809   1.969   1.349  0.4780  1.2293 -0.5179
 1991SOL     OW 6107   4.626   4.662   1.290 -0.0925 -0.8207 -0.0335
 1991SOL    HW1 6108   4.587   4.700   1.211  0.1308 -2.2850 -0.8834
 1991SOL    HW2 6109   4.569   4.588   1.311  0.3121 -0.9283  0.7145
 1992SOL     OW 6110   4.346   1.461   1.099 -0.2550 -0.3965 -0.7820
 1992SOL    HW1 6111   4.349   1.526   1.169 -2.6511  0.0454 -1.0038
 1992SOL    HW2 6112   4.437   1.433   1.089  0.3679  0.4872  1.5749
 1993SOL     OW 6113   1.172   3.221   0.423  0.7675 -0.3800 -0.0261
 1993SOL    HW1 6114   1.096   3.235   0.367 -0.5054 -0.9214  1.4822
 1993SOL    HW2 6115   1.224   3.154   0.378  1.3996  1.3262 -2.0141
 1994SOL     OW 6116   0.240   3.094   4.529 -0.0730  0.0798 -0.3520
 1994SOL    HW1 6117   0.307   3.149   4.488 -0.7479 -0.4280 -2.1827
 1994SOL    HW2 6118   0.271   3.004   4.516 -0.1732 -0.0865  0.4962
 1995SOL     OW 6119   3.543   1.708   0.381 -0.3601  0.1670  0.1191
 1995SOL    HW1 6120   3.559   1.792   0.337 -0.0888 -1.5128 -3.3665
 1995SOL    HW2 6121   3.448   1.704   0.390 -0.2898  1.6231  2.2172
 1996SOL     OW 6122   2.799   3.255   0.576  0.7059 -0.0838 -0.7863
 1996SOL    HW1 6123   2.874   3.246   0.634 -0.5473  1.0219  1.1166
 1996SOL    HW2 6124   2.763   3.341   0.596 -1.7266 -1.0108 -0.8162
 1997SOL     OW 6125   1.236   1.575   4.049 -0.2353  0.2648  0.4297
 1997SOL    HW1 6126   1.220   1.656   3.999 -0.0294 -1.0795 -1.9316
 1997SOL    HW2 6127   1.149   1.538   4.062 -0.1085 -1.5992 -2.9709
 1998SOL     OW 6128   4.962   0.815   2.528 -0.0869 -0.0088 -0.1485
 1998SOL    HW1 6129   4.928   0.752   2.464  0.5768 -2.1857  1.5104
 1998SOL    HW2 6130   5.023   0.765   2.582 -0.9866  1.5367  2.5247
 1999SOL     OW 6131   2.155   4.922   4.257 -0.0712 -0.1002 -0.9960
 1999SOL    HW1 6132   2.091   4.851   4.256 -0.5184  0.2901 -0.8318
 1999SOL    HW2 6133   2.139   4.970   4.175  0.7095 -0.6052 -1.4460
 2000SOL     OW 6134   2.071   0.342   4.270  0.3465 -0.2677  0.4315
 2000SOL    HW1 6135   2.130   0.358   4.343  0.1559  3.0435  0.0267
 2000SOL    HW2 6136   1.987   0.323   4.310  0.7033 -0.5991  1.0345
 2001SOL     OW 6137   3.412   4.302   3.153  0.0019  0.1176  0.4044
 2001SOL    HW1 6138   3.347   4.300   3.223 -0.6091 -0.6278 -0.1692
 2001SOL    HW2 6139   3.460   4.383   3.167 -3.0272  2.3308 -0.9481
 2002SOL     OW 6140   4.852   0.816   3.955  0.0598  0.3856  0.3968
 2002SOL    HW1 6141   4.919   0.799   4.022  2.8617 -0.4877 -2.3596
 2002SOL    HW2 6142   4.821   0.729   3.930 -0.9027  0.7035  0.4537
 2003SOL     OW 6143   4.520   0.667   4.523 -0.0021  0.5581 -0.1770
 2003SOL    HW1 6144   4.436   0.712   4.510  0.8236  2.5140  0.8287
 2003SOL    HW2 6145   4.571   0.690   4.446 -0.7280 -1.6645 -1.4208
 2004SOL     OW 6146   4.843   1.576   3.597  0.5946  0.2770 -0.1617
 2004SOL    HW1 6147   4.894   1.534   3.528 -0.2599  0.2491 -0.7812
 2004SOL    HW2 6148   4.787   1.638   3.552 -1.5854 -1.2965  0.2347
 2005SOL     OW 6149   4.876   4.912   1.680 -0.3567  0.1783 -0.1646
 2005SOL    HW1 6150   4.935   4.912   1.604 -0.8516  0.3350 -0.5500
 2005SOL    HW2 6151   4.793   4.877   1.647 -0.2421 -0.8665  0.5763
 2006SOL     OW 6152   2.539   2.412   1.234  0.1133  0.2331  0.2360
 2006SOL    HW1 6153   2.534   2.419   1.139 -0.3932 -0.5896  0.1928
 2006SOL    HW2 6154   2.611   2.352   1.251 -0.6453 -0.6930  0.3064
 2007SOL     OW 6155   3.715   1.714   4.165 -0.4845  0.4238  0.2519
 2007SOL    HW1 6156   3.741   1.688   4.076  0.0480  1.8937 -0.0557
 2007SOL    HW2 6157   3.650   1.648   4.191  2.5989 -2.8197  0.5936
 2008SOL     OW 6158   2.603   4.682   2.600  0.3463  0.1556 -0.5802
 2008SOL    HW1 6159   2.636   4.702   2.688 -2.9985  1.1759  0.6054
 2008SOL    HW2 6160   2.605   4.766   2.554 -1.5459  0.5068 -0.0835
 2009SOL     OW 6161   3.187   2.108   3.608 -0.2982 -0.0907 -0.1392
 2009SOL    HW1 6162   3.154   2.185   3.655  0.0149  0.4717 -0.8177
 2009SOL    HW2 6163   3.278   2.099   3.638  0.9858  2.1715 -2.8336
 2010SOL     OW 6164   4.395   3.287   1.424  0.0772  0.4116 -0.7706
 2010SOL    HW1 6165   4.428   3.377   1.421  0.0461  0.4782  0.5564
 2010SOL    HW2 6166   4.462   3.238   1.471  0.6605 -0.5396 -2.4919
 2011SOL     OW 6167   3.221   1.710   2.035  0.0307 -0.1047  0.4157
 2011SOL    HW1 6168   3.151   1.658   1.995 -2.3211  1.1790  2.5952
 2011SOL    HW2 6169   3.301   1.661   2.016 -1.5605 -2.2498 -1.2209
 2012SOL     OW 6170   3.807   2.789   2.776  0.1838  0.3584  0.4340
 2012SOL    HW1 6171   3.810   2.745   2.691 -1.3072  0.1899  0.4285
 2012SOL    HW2 6172   3.795   2.718   2.839  2.2374  0.3903  0.9262
 2013SOL     OW 6173   2.499   3.695   2.011  0.0587 -0.7393 -0.2006
 2013SOL    HW1 6174   2.449   3.642   2.074 -1.6897  0.9162 -0.1109
 2013SOL    HW2 6175   2.475   3.659   1.926 -0.5947 -0.5301 -0.1088
 2014SOL     OW 6176   4.968   1.412   4.303 -0.0270 -0.3829 -0.5250
 2014SOL    HW1 6177   5.018   1.485   4.339 -0.4112 -0.0696 -0.6239
 2014SOL    HW2 6178   5.034   1.349   4.275  0.3084 -1.7639  2.9366
 2015SOL     OW 6179   3.026   3.552   0.191  0.3215  0.3375  0.7550
 2015SOL    HW1 6180   3.067   3.552   0.105 -0.2166 -0.6696  0.4846
 2015SOL    HW2 6181   2.935   3.573   0.175  0.1630 -0.1128  1.0394
 2016SOL     OW 6182   3.219   1.507   0.985  0.6714  0.0569  0.0187
 2016SOL    HW1 6183   3.138   1.534   1.028  0.0592  0.3708 -1.2996
 2016SOL    HW2 6184   3.231   1.416   1.011  1.3869  0.7583  2.4329
 2017SOL     OW 6185   4.444   1.876   4.145 -0.2676 -0.1943  0.3905
 2017SOL    HW1 6186   4.478   1.830   4.222 -3.0894 -0.1069  1.7841
 2017SOL    HW2 6187   4.351   1.854   4.143 -0.8731  2.2088 -1.2810
 2018SOL     OW 6188   3.125   3.017   4.364  0.4340 -0.2934  0.0851
 2018SOL    HW1 6189   3.202   3.048   4.317 -0.0173  0.3767 -0.2305
 2018SOL    HW2 6190   3.069   3.094   4.372 -0.9646 -1.1025 -1.2303
 2019SOL     OW 6191   0.437   3.015   3.841  0.1250  0.0840 -0.1490
 2019SOL    HW1 6192   0.453   3.039   3.750 -0.4441  0.7639 -0.0788
 2019SOL    HW2 6193   0.351   2.973   3.841 -0.4466  1.2089  0.2451
 2020SOL     OW 6194   3.436   2.696   3.080 -0.4093 -0.1492 -0.3345
 2020SOL    HW1 6195   3.439   2.680   2.986  0.1882  1.3425 -0.5970
 2020SOL    HW2 6196   3.409   2.788   3.088  1.3865  0.3125  0.8776
 2021SOL     OW 6197   4.472   4.501   3.939 -0.1692  0.6421  0.4845
 2021SOL    HW1 6198   4.492   4.414   3.903 -0.7779 -0.6733  3.0985
 2021SOL    HW2 6199   4.403   4.535   3.882  2.0142  0.7462 -2.3144
 2022SOL     OW 6200   3.932   2.711   0.620  0.3059  0.4641 -0.1053
 2022SOL    HW1 6201   3.916   2.649   0.691 -1.8115 -1.3668 -2.0094
 2022SOL    HW2 6202   3.934   2.796   0.663  1.6419 -0.7263  2.4292
 2023SOL     OW 6203   2.454   0.739   0.611  0.1886 -0.4939  0.6105
 2023SOL    HW1 6204   2.485   0.822   0.648 -0.0871 -0.6173  1.1177
 2023SOL    HW2 6205   2.380   0.764   0.555  0.4320 -0.3414  0.3508
 2024SOL     OW 6206   4.305   2.022   1.312  0.0823  0.8125  0.2819
 2024SOL    HW1 6207   4.224   1.977   1.335  0.5154  1.1394  2.7048
 2024SOL    HW2 6208   4.323   1.994   1.222 -2.2768  0.1334 -0.0628
 2025SOL     OW 6209   3.389   4.542   3.991 -0.1149 -0.1835  0.0528
 2025SOL    HW1 6210   3.378   4.482   3.917 -1.4804  1.1864 -0.8988
 2025SOL    HW2 6211   3.416   4.625   3.952 -2.3452  1.0107  0.8613
 2026SOL     OW 6212   2.927   2.793   3.833  0.5813 -0.0076  0.1535
 2026SOL    HW1 6213   2.991   2.730   3.798  0.5851 -0.2302  0.5526
 2026SOL    HW2 6214   2.947   2.797   3.927  2.1807  2.4033 -0.1973
 2027SOL     OW 6215   1.517   1.054   0.099  0.4167  0.2395 -1.1229
 2027SOL    HW1 6216   1.446   1.106   0.137  1.1871  1.1357 -0.8665
 2027SOL    HW2 6217   1.522   0.976   0.156 -0.6566 -0.0728 -1.4322
 2028SOL     OW 6218   1.199   0.061   4.703  0.5904  0.4694 -0.1233
 2028SOL    HW1 6219   1.192   0.058   4.798 -0.2378 -1.9886 -0.1877
 2028SOL    HW2 6220   1.246  -0.019   4.679 -0.1315  0.4948 -1.8185
 2029SOL     OW 6221   4.857   4.943   2.271 -0.1923 -0.0994 -0.1481
 2029SOL    HW1 6222   4.793   5.000   2.313 -0.0849 -0.4463  0.5078
 2029SOL    HW2 6223   4.819   4.855   2.277  0.8367 -0.4929  1.3316
 2030SOL     OW 6224   2.350   1.987   3.603  0.3711  0.8967  0.0097
 2030SOL    HW1 6225   2.398   1.907   3.581 -0.6902  0.0977  0.5028
 2030SOL    HW2 6226   2.310   1.968   3.688 -1.7476  1.0701 -0.8874
 2031SOL     OW 6227   4.931   0.499   0.376 -0.5519 -0.1815 -0.2807
 2031SOL    HW1 6228   4.925   0.479   0.283  2.6584  0.4354 -0.7560
 2031SOL    HW2 6229   4.897   0.587   0.384 -1.4370 -0.4729 -0.7389
 2032SOL     OW 6230   2.546   3.353   4.076 -0.6373 -0.2433  0.1376
 2032SOL    HW1 6231   2.545   3.446   4.052  0.3937 -0.0492  0.7975
 2032SOL    HW2 6232   2.628   3.320   4.040 -0.6826 -0.7432  0.4838
 2033SOL     OW 6233   3.399   4.013   4.194  0.3444  0.5500 -0.1893
 2033SOL    HW1 6234   3.477   4.021   4.249  0.0241 -0.0733  0.3599
 2033SOL    HW2 6235   3.398   4.095   4.143  1.2431  0.6547 -0.0675
 2034SOL     OW 6236   0.611   0.007   3.315 -0.1235  0.3196 -0.0320
 2034SOL    HW1 6237   0.671  -0.021   3.384  1.2783  1.9267 -0.5330
 2034SOL    HW2 6238   0.607   0.103   3.325 -2.1114  0.3359 -0.4381
 2035SOL     OW 6239   1.638   1.260   3.095 -0.5816 -1.0896  0.0997
 2035SOL    HW1 6240   1.713   1.319   3.091 -0.8300 -0.7148  0.8024
 2035SOL    HW2 6241   1.648   1.203   3.019  0.3709 -0.9937  0.1447
 2036SOL     OW 6242   5.012   4.605   0.630  0.1701  0.2883 -0.0850
 2036SOL    HW1 6243   4.922   4.576   0.619  0.3322  0.0664 -0.9224
 2036SOL    HW2 6244   5.025   4.607   0.724 -0.4934 -0.3771  0.0330
 2037SOL     OW 6245   0.662   2.694   0.967 -0.4705 -0.5205  0.1938
 2037SOL    HW1 6246   0.659   2.599   0.974 -1.7503 -0.5317 -0.3878
 2037SOL    HW2 6247   0.573   2.723   0.986 -0.0488  0.5889  0.5918
 2038SOL     OW 6248   0.794   2.875   0.417 -0.1106  0.0774  0.4789
 2038SOL    HW1 6249   0.764   2.892   0.507 -0.6047 -3.1073  1.0490
 2038SOL    HW2 6250   0.737   2.929   0.363 -1.0942  0.6513  2.0006
 2039SOL     OW 6251   2.651   1.691   4.592 -0.4280 -0.2146 -0.2295
 2039SOL    HW1 6252   2.613   1.779   4.587  0.3962  0.1959  0.4520
 2039SOL    HW2 6253   2.703   1.684   4.512 -1.5609 -0.6162 -0.9552
 2040SOL     OW 6254   3.221   4.002   4.429  0.6281  0.5985 -0.6646
 2040SOL    HW1 6255   3.272   3.964   4.358  1.2543  0.7185 -0.2880
 2040SOL    HW2 6256   3.284   4.052   4.480  0.6067 -0.9908  1.0407
 2041SOL     OW 6257   3.861   3.038   3.591 -0.0840  0.2184 -0.3237
 2041SOL    HW1 6258   3.836   3.123   3.629  0.5398 -0.8609  2.8412
 2041SOL    HW2 6259   3.808   2.974   3.640 -0.0904 -1.2861 -2.2050
 2042SOL     OW 6260   4.253   2.901   0.422 -0.1669  0.4692  0.7406
 2042SOL    HW1 6261   4.161   2.902   0.447 -0.1744  0.3219  0.7186
 2042SOL    HW2 6262   4.267   2.815   0.384 -0.1389  0.6656  0.2928
 2043SOL     OW 6263   2.946   4.732   3.510  0.3218  0.2498  0.0901
 2043SOL    HW1 6264   3.001   4.810   3.520  2.0971 -0.8616 -0.4594
 2043SOL    HW2 6265   2.925   4.705   3.600  0.5344  0.7961  0.3058
 2044SOL     OW 6266   0.602  -0.001   0.999 -0.0919  0.2474  0.1167
 2044SOL    HW1 6267   0.523   0.008   0.945  0.4466  1.2284 -0.5355
 2044SOL    HW2 6268   0.583   0.047   1.079  0.1999  1.3746 -0.4675
 2045SOL     OW 6269   2.381   3.363   3.588 -0.2580 -0.7088 -0.4116
 2045SOL    HW1 6270   2.328   3.307   3.644 -0.3477 -1.2897 -1.0609
 2045SOL    HW2 6271   2.445   3.304   3.548  0.1309 -0.2182 -0.5421
 2046SOL     OW 6272   0.779   4.096   0.491  0.1470  0.1459 -0.5100
 2046SOL    HW1 6273   0.752   4.045   0.568  3.1478  0.5824  0.9873
 2046SOL    HW2 6274   0.744   4.047   0.417 -1.7683 -1.0131  1.0315
 2047SOL     OW 6275   2.920   0.035   4.310  0.2737 -0.3082 -0.0551
 2047SOL    HW1 6276   2.856  -0.036   4.312  2.6595 -2.6282 -0.7398
 2047SOL    HW2 6277   2.983   0.009   4.244  2.8294  1.0273  1.6919
 2048SOL     OW 6278   2.500   2.062   4.848  0.7347  0.0015  0.3469
 2048SOL    HW1 6279   2.506   2.104   4.934  0.7089 -1.4178  1.0858
 2048SOL    HW2 6280   2.498   2.134   4.786  2.7841  1.0571  1.3913
 2049SOL     OW 6281   0.236   4.677   4.085  0.0467  0.2245 -0.0029
 2049SOL    HW1 6282   0.251   4.767   4.055 -0.5983 -0.1231 -1.4777
 2049SOL    HW2 6283   0.180   4.638   4.017  1.1526 -1.5999  0.0501
 2050SOL     OW 6284   1.724   3.191   4.529 -0.0068 -0.6891 -0.1939
 2050SOL    HW1 6285   1.780   3.122   4.493  0.2738 -0.2241 -0.6564
 2050SOL    HW2 6286   1.714   3.167   4.621  1.3413 -0.5327  0.0159
 2051SOL     OW 6287   0.953   0.860   2.464  0.0103 -0.8610 -0.0574
 2051SOL    HW1 6288   1.017   0.835   2.532 -0.7307 -1.0795  0.5761
 2051SOL    HW2 6289   0.938   0.954   2.479  0.2286 -0.7969 -0.2431
 2052SOL     OW 6290   2.211   0.610   0.429  0.0124  0.1135  0.2881
 2052SOL    HW1 6291   2.251   0.533   0.470  1.2162  0.3869 -0.3336
 2052SOL    HW2 6292   2.161   0.574   0.355  1.1441 -0.0401 -0.4322
 2053SOL     OW 6293   1.331   1.171   3.154  0.7014  0.6687 -0.4951
 2053SOL    HW1 6294   1.292   1.144   3.071  0.7638 -0.8166 -0.0694
 2053SOL    HW2 6295   1.424   1.179   3.135  0.5788  1.4474 -0.8240
 2054SOL     OW 6296   1.543   4.093   4.067 -0.0451 -0.1449 -0.0682
 2054SOL    HW1 6297   1.600   4.118   4.140 -1.0769 -0.8580  1.0168
 2054SOL    HW2 6298   1.579   4.011   4.036 -1.5058 -1.6532  1.8998
 2055SOL     OW 6299   2.814   1.321   4.615  0.6094  0.1346 -0.1142
 2055SOL    HW1 6300   2.776   1.233   4.608  1.0502 -0.0822  0.1804
 2055SOL    HW2 6301   2.870   1.330   4.538  0.1605  0.3616 -0.4204
 2056SOL     OW 6302   1.469   0.886   1.980  0.4943  0.0283 -0.1039
 2056SOL    HW1 6303   1.558   0.916   1.960  0.3067  0.0836 -0.9313
 2056SOL    HW2 6304   1.464   0.885   2.075  2.2159 -2.4560  0.0520
 2057SOL     OW 6305   2.984   4.318   0.353 -0.1623  0.0095 -0.1670
 2057SOL    HW1 6306   2.903   4.272   0.376 -0.6459  0.0154 -1.7088
 2057SOL    HW2 6307   3.053   4.264   0.390 -0.8271 -0.7842 -0.0477
 2058SOL     OW 6308   2.998   2.328   3.148 -0.5090  0.6815 -0.2566
 2058SOL    HW1 6309   3.008   2.318   3.242  1.4620  2.8978 -0.1434
 2058SOL    HW2 6310   2.958   2.246   3.119  3.2585 -2.1855  1.8494
 2059SOL     OW 6311   2.901   0.042   2.200  0.1974  0.4906  0.1817
 2059SOL    HW1 6312   2.943   0.006   2.122 -1.2654  1.2537 -1.0394
 2059SOL    HW2 6313   2.878  -0.034   2.253  1.0831 -0.0559 -0.1974
 2060SOL     OW 6314   4.431   0.179   0.986 -0.3334 -0.0539  0.0684
 2060SOL    HW1 6315   4.502   0.185   0.922 -1.5867  0.5850 -1.3019
 2060SOL    HW2 6316   4.395   0.267   0.990 -1.4430 -0.5061  0.3045
 2061SOL     OW 6317   4.207   1.462   2.680 -0.3113 -0.0517  0.2134
 2061SOL    HW1 6318   4.169   1.384   2.640 -1.1551  0.3670  0.1786
 2061SOL    HW2 6319   4.297   1.463   2.648  0.1741 -1.8004  1.3628
 2062SOL     OW 6320   4.125   0.152   4.406 -0.2642  0.0692 -0.5881
 2062SOL    HW1 6321   4.204   0.110   4.441  0.3615  0.7559 -1.1452
 2062SOL    HW2 6322   4.097   0.095   4.334 -1.1523 -0.9706  0.5444
 2063SOL     OW 6323   1.639   1.881   4.703  0.1906 -0.1500  0.3641
 2063SOL    HW1 6324   1.655   1.884   4.797  2.0690  1.4917  0.0507
 2063SOL    HW2 6325   1.563   1.938   4.690  1.2842  1.4211  0.6779
 2064SOL     OW 6326   3.873   3.567   1.094 -0.3401  0.5339 -0.2455
 2064SOL    HW1 6327   3.779   3.553   1.097 -0.6645  2.5351  2.1434
 2064SOL    HW2 6328   3.887   3.625   1.019 -1.1270  0.9207 -0.0934
 2065SOL     OW 6329   4.771   0.518   2.722 -0.5101 -0.6749  0.1363
 2065SOL    HW1 6330   4.806   0.436   2.758  0.0125 -0.5379 -0.0491
 2065SOL    HW2 6331   4.678   0.500   2.710 -0.2597 -1.5338 -0.6794
 2066SOL     OW 6332   0.968   0.998   3.600 -0.3497  0.1897 -0.6731
 2066SOL    HW1 6333   1.011   0.998   3.685 -1.9188  0.9541  0.1497
 2066SOL    HW2 6334   0.967   0.905   3.574  1.0228  0.0658 -0.3540
 2067SOL     OW 6335   0.344   4.011   2.536 -0.5800 -0.2560 -0.5256
 2067SOL    HW1 6336   0.392   4.082   2.580 -2.4515  1.0428 -0.4783
 2067SOL    HW2 6337   0.347   4.034   2.443 -2.7841  1.0093 -0.3588
 2068SOL     OW 6338   0.493   1.559   3.469  0.1250  0.2143  0.1073
 2068SOL    HW1 6339   0.575   1.601   3.495  0.0621  0.7048 -0.4725
 2068SOL    HW2 6340   0.475   1.497   3.540  0.5254  0.7506  0.6950
 2069SOL     OW 6341   1.745   3.777   3.043 -0.2227  0.3425 -0.1631
 2069SOL    HW1 6342   1.797   3.722   3.102 -0.3534 -0.2449 -0.5890
 2069SOL    HW2 6343   1.682   3.821   3.101 -1.5941 -1.6454 -0.0412
 2070SOL     OW 6344   4.454   3.384   4.748 -0.6920 -0.2459 -0.1008
 2070SOL    HW1 6345   4.365   3.392   4.781 -0.7493  1.9218 -0.6284
 2070SOL    HW2 6346   4.495   3.319   4.806 -2.1508 -0.1044  1.1530
 2071SOL     OW 6347   1.528   3.011   1.886 -0.6246  0.0605 -0.0133
 2071SOL    HW1 6348   1.432   3.015   1.879 -0.6990  0.9174  1.2478
 2071SOL    HW2 6349   1.557   3.096   1.853 -0.3952  0.3374  0.8853
 2072SOL     OW 6350   0.220   2.862   3.824  0.1037  0.4312  0.8677
 2072SOL    HW1 6351   0.195   2.798   3.891 -0.4509 -1.1993 -0.8033
 2072SOL    HW2 6352   0.175   2.832   3.745  2.5071  0.9646 -0.7878
 2073SOL     OW 6353   2.592   4.625   4.776 -0.7842  0.5811 -0.1478
 2073SOL    HW1 6354   2.672   4.637   4.726 -0.9528  0.0519 -0.5609
 2073SOL    HW2 6355   2.567   4.713   4.803 -1.1364  0.9973 -1.7126
 2074SOL     OW 6356   3.319   4.582   4.967  0.8780 -0.0918 -0.1222
 2074SOL    HW1 6357   3.321   4.497   4.923 -0.3272 -0.0386 -0.3129
 2074SOL    HW2 6358   3.226   4.604   4.972  1.1361  0.9113  0.5207
 2075SOL     OW 6359   0.121   1.794   4.887  0.0147  0.2323 -0.1534
 2075SOL    HW1 6360   0.216   1.780   4.889 -0.0324 -0.5061 -1.5200
 2075SOL    HW2 6361   0.092   1.782   4.977  1.0607 -0.8557  0.0595
 2076SOL     OW 6362   2.518   3.506   0.651  0.3641  0.3682 -0.2771
 2076SOL    HW1 6363   2.477   3.592   0.647 -0.1351  0.1009 -1.8423
 2076SOL    HW2 6364   2.452   3.446   0.616  0.3976 -0.7941  1.5287
 2077SOL     OW 6365   0.701   4.623   2.240  0.2048 -0.3421  0.2038
 2077SOL    HW1 6366   0.628   4.685   2.248  1.1529  0.7471  0.8182
 2077SOL    HW2 6367   0.773   4.676   2.207  0.7494 -1.3848 -0.3231
 2078SOL     OW 6368   4.540   3.997   3.005 -0.0929 -0.1081  0.4236
 2078SOL    HW1 6369   4.456   4.025   3.041  0.2228  0.2374  0.9043
 2078SOL    HW2 6370   4.569   3.927   3.064  0.6712  0.8150  1.1685
 2079SOL     OW 6371   1.830   3.275   0.600  0.3478 -0.0548  0.1220
 2079SOL    HW1 6372   1.873   3.193   0.579 -1.6272 -1.4562  1.1711
 2079SOL    HW2 6373   1.789   3.303   0.518  1.6744  0.3490 -0.4318
 2080SOL     OW 6374   1.125   3.723   3.419  0.1841  0.0250 -0.4364
 2080SOL    HW1 6375   1.147   3.631   3.434 -0.0842  0.0793  0.3278
 2080SOL    HW2 6376   1.111   3.729   3.324 -1.3540 -1.0826 -0.3196
 2081SOL     OW 6377   4.721   0.939   3.298  0.4724 -0.1585  0.5473
 2081SOL    HW1 6378   4.811   0.956   3.270 -0.3802  1.1278 -1.6910
 2081SOL    HW2 6379   4.707   0.846   3.280  0.8669  0.0006 -0.6965
 2082SOL     OW 6380   4.637   4.910   4.030 -0.8509  0.4684  0.8251
 2082SOL    HW1 6381   4.645   4.821   3.994 -2.7661  0.4787  0.2270
 2082SOL    HW2 6382   4.712   4.957   3.994  0.1235 -0.8616  1.0343
 2083SOL     OW 6383   1.343   2.848   4.622 -0.7151  0.0190 -0.6582
 2083SOL    HW1 6384   1.261   2.895   4.602 -0.6049  0.4255 -0.1667
 2083SOL    HW2 6385   1.315   2.774   4.675 -0.7486  0.2508 -0.3495
 2084SOL     OW 6386   3.232   0.865   0.785  0.2917 -0.2973  0.1843
 2084SOL    HW1 6387   3.170   0.878   0.857 -1.4639 -0.0347 -1.2907
 2084SOL    HW2 6388   3.273   0.951   0.773  0.1671 -0.1914  0.5002
 2085SOL     OW 6389   4.502   2.334   0.229 -0.3197  0.1351  0.3963
 2085SOL    HW1 6390   4.467   2.420   0.206 -0.7681  0.3604  1.8470
 2085SOL    HW2 6391   4.426   2.276   0.231 -0.0449 -0.2736 -0.3691
 2086SOL     OW 6392   1.806   2.578   4.449  0.2092  0.1781  0.1148
 2086SOL    HW1 6393   1.724   2.548   4.489  1.0012  0.6911  2.2504
 2086SOL    HW2 6394   1.844   2.636   4.514  2.1077  0.2682 -1.0101
 2087SOL     OW 6395   4.258   4.007   3.368 -0.4906 -0.4118 -0.2735
 2087SOL    HW1 6396   4.172   4.047   3.379 -0.3729  0.1094 -1.1425
 2087SOL    HW2 6397   4.295   4.005   3.456 -0.9045  0.5041 -0.0613
 2088SOL     OW 6398   0.238   3.584   2.657 -0.5610  0.1629  0.3186
 2088SOL    HW1 6399   0.185   3.505   2.650  2.1021 -1.8037  0.6333
 2088SOL    HW2 6400   0.242   3.603   2.751  2.2970 -2.0684  0.7803
 2089SOL     OW 6401   4.453   2.602   1.865  0.1963 -0.2892  0.6690
 2089SOL    HW1 6402   4.471   2.640   1.779  0.6416  0.9487  1.2834
 2089SOL    HW2 6403   4.537   2.565   1.893  0.0281 -0.7779  0.5366
 2090SOL     OW 6404   3.499   1.105   2.081 -0.4067 -0.1076  0.4627
 2090SOL    HW1 6405   3.525   1.177   2.025  0.2542 -0.5465  0.1942
 2090SOL    HW2 6406   3.410   1.127   2.110 -0.2378  0.7655  0.3234
 2091SOL     OW 6407   1.284   2.876   3.588  0.0238 -0.3702  0.1874
 2091SOL    HW1 6408   1.217   2.808   3.589 -0.2080 -0.1769 -1.1154
 2091SOL    HW2 6409   1.310   2.884   3.496  0.7324  0.6349  0.4509
 2092SOL     OW 6410   3.329   0.928   1.884  0.5069 -0.2703  0.1856
 2092SOL    HW1 6411   3.423   0.911   1.894  0.6763 -0.4534 -1.3873
 2092SOL    HW2 6412   3.301   0.960   1.969  1.5899 -2.0128  1.2545
 2093SOL     OW 6413   3.688   1.884   2.627 -0.1706 -0.0662 -0.0281
 2093SOL    HW1 6414   3.737   1.958   2.664  2.1311 -2.2041  1.4741
 2093SOL    HW2 6415   3.681   1.905   2.533 -0.7831  2.6046  0.5196
 2094SOL     OW 6416   2.934   2.243   3.482  0.5967  0.1530 -0.0969
 2094SOL    HW1 6417   3.004   2.256   3.546  0.6590  1.2809 -0.3658
 2094SOL    HW2 6418   2.855   2.232   3.534  0.6444  1.0916  0.1980
 2095SOL     OW 6419   3.741   0.906   2.042  0.3941  0.5298 -0.3908
 2095SOL    HW1 6420   3.806   0.883   1.976  0.6422  0.4718 -0.1267
 2095SOL    HW2 6421   3.662   0.860   2.015  0.0932  1.6019 -1.4147
 2096SOL     OW 6422   4.250   4.636   0.184  0.0474 -0.1997  0.9248
 2096SOL    HW1 6423   4.229   4.706   0.123 -0.1566 -1.9121 -1.0857
 2096SOL    HW2 6424   4.344   4.623   0.175 -0.0615 -0.7903  0.5651
 2097SOL     OW 6425   1.013   4.936   3.856  0.2028 -0.4811  0.7276
 2097SOL    HW1 6426   0.980   5.005   3.913  2.7895  2.2314 -0.7596
 2097SOL    HW2 6427   1.099   4.914   3.893  2.5792  2.2754 -2.4195
 2098SOL     OW 6428   2.302   0.579   4.898  0.3566  0.6147  0.6439
 2098SOL    HW1 6429   2.259   0.648   4.948 -1.0098 -0.9659  1.7396
 2098SOL    HW2 6430   2.384   0.563   4.944  0.1837  0.7622  1.0053
 2099SOL     OW 6431   3.044   3.510   0.630 -0.0718 -0.0536  0.7825
 2099SOL    HW1 6432   3.124   3.460   0.646  1.3330  2.1569  0.9332
 2099SOL    HW2 6433   3.073   3.599   0.615 -2.4046  0.5391 -0.7454
 2100SOL     OW 6434   3.139   0.321   4.125 -0.4476  0.2269 -0.3969
 2100SOL    HW1 6435   3.131   0.346   4.033 -0.5514  0.1733 -0.4034
 2100SOL    HW2 6436   3.165   0.401   4.170 -2.1818  0.7170 -0.2040
 2101SOL     OW 6437   1.583   2.223   0.652 -0.3968  0.0947 -0.1638
 2101SOL    HW1 6438   1.600   2.298   0.709  0.1716  1.5380 -2.1226
 2101SOL    HW2 6439   1.654   2.162   0.672  0.6584  1.2174 -0.3280
 2102SOL     OW 6440   4.653   0.222   1.832 -0.0786 -0.2553  0.5124
 2102SOL    HW1 6441   4.679   0.140   1.875  2.6422  0.1597 -0.1348
 2102SOL    HW2 6442   4.719   0.285   1.860 -0.6890  1.0947 -0.9613
 2103SOL     OW 6443   0.765   0.321   0.025 -0.2807  0.1061  0.9923
 2103SOL    HW1 6444   0.837   0.291  -0.030 -2.1751  1.3432 -2.4715
 2103SOL    HW2 6445   0.709   0.243   0.036 -0.9150  0.2720 -0.7209
 2104SOL     OW 6446   3.568   3.087   1.174 -0.1046  0.1045  0.0480
 2104SOL    HW1 6447   3.661   3.107   1.168 -0.4516  2.3882  1.1266
 2104SOL    HW2 6448   3.535   3.098   1.084  0.4316  0.6848 -0.0831
 2105SOL     OW 6449   2.315   3.386   1.144 -0.6025  0.2181  0.2263
 2105SOL    HW1 6450   2.377   3.316   1.162  0.3033  1.6230  3.2280
 2105SOL    HW2 6451   2.231   3.353   1.176 -0.1993  0.3724  1.5218
 2106SOL     OW 6452   1.510   4.503   4.067  0.1394 -0.2567  0.2904
 2106SOL    HW1 6453   1.492   4.441   4.138 -1.6932  1.5090  1.4737
 2106SOL    HW2 6454   1.537   4.448   3.993 -3.8494 -2.7689  0.4414
 2107SOL     OW 6455   2.159   3.560   4.669 -0.1230 -0.0594  0.6844
 2107SOL    HW1 6456   2.096   3.488   4.664  0.3178 -0.3871 -0.9246
 2107SOL    HW2 6457   2.131   3.612   4.745 -2.4881 -0.0535 -0.1028
 2108SOL     OW 6458   2.063   1.195   1.347  0.0869 -0.3785 -0.6885
 2108SOL    HW1 6459   2.045   1.190   1.440  0.3943 -1.3405 -0.6666
 2108SOL    HW2 6460   2.155   1.221   1.342 -0.1616  0.5068 -0.7401
 2109SOL     OW 6461   2.872   0.527   2.455  0.6312  0.0386 -0.5371
 2109SOL    HW1 6462   2.889   0.449   2.401 -0.2504 -0.3088 -0.3283
 2109SOL    HW2 6463   2.792   0.565   2.418 -2.6474 -2.6248  3.0420
 2110SOL     OW 6464   2.966   0.721   3.108  0.8040 -0.1565  0.3334
 2110SOL    HW1 6465   3.008   0.660   3.048  1.8212  0.3919  0.4609
 2110SOL    HW2 6466   3.005   0.702   3.193 -3.5713 -3.8631  1.9476
 2111SOL     OW 6467   0.449   2.568   1.247 -0.1850  0.0884 -0.1295
 2111SOL    HW1 6468   0.524   2.516   1.217  0.1369  0.9090 -0.7977
 2111SOL    HW2 6469   0.489   2.646   1.286 -0.6725  1.6002 -2.4657
 2112SOL     OW 6470   0.424   3.508   0.093 -0.0332 -0.0252 -0.4483
 2112SOL    HW1 6471   0.453   3.578   0.035  0.1449  0.3450  0.0747
 2112SOL    HW2 6472   0.445   3.427   0.047  0.2660  0.2613 -0.8182
 2113SOL     OW 6473   4.234   4.358   3.018 -0.0588 -0.2154  0.1904
 2113SOL    HW1 6474   4.192   4.436   2.980  1.1425 -0.2374 -1.2732
 2113SOL    HW2 6475   4.164   4.315   3.067 -0.8889  1.4906  0.6043
 2114SOL     OW 6476   0.881   1.257   4.016  0.3049  0.5542  0.1526
 2114SOL    HW1 6477   0.897   1.351   4.024 -1.7022  0.8490  1.4316
 2114SOL    HW2 6478   0.918   1.219   4.095  1.5423  0.1782 -0.5887
 2115SOL     OW 6479   2.004   0.018   1.481  0.0607  0.0774 -0.3274
 2115SOL    HW1 6480   1.991  -0.071   1.447  1.7639 -0.5656  0.5578
 2115SOL    HW2 6481   1.917   0.058   1.479 -0.8125 -1.7300 -0.4304
 2116SOL     OW 6482   3.377   2.408   4.946 -0.2728 -0.2024  0.0251
 2116SOL    HW1 6483   3.467   2.391   4.976 -0.5192  0.9001  1.4890
 2116SOL    HW2 6484   3.322   2.384   5.020 -1.0600  0.8709 -0.1962
 2117SOL     OW 6485   3.900   3.580   4.234  0.2731  0.0211 -0.1912
 2117SOL    HW1 6486   3.873   3.598   4.144 -3.5956 -2.0301  0.3397
 2117SOL    HW2 6487   3.976   3.522   4.226  1.4637  1.6989 -1.9837
 2118SOL     OW 6488   4.860   3.121   4.361  0.2650  0.0241 -0.6611
 2118SOL    HW1 6489   4.839   3.072   4.441  0.1672  1.2057  0.0496
 2118SOL    HW2 6490   4.865   3.053   4.293 -0.0094 -0.9605  0.2649
 2119SOL     OW 6491   2.571   0.600   2.080 -0.4840  0.2733  0.2290
 2119SOL    HW1 6492   2.507   0.584   2.011  1.1339  0.3464 -1.3798
 2119SOL    HW2 6493   2.592   0.693   2.073  0.3390  0.0984  0.2109
 2120SOL     OW 6494   3.239   4.069   1.407  0.3388  0.2232  0.0946
 2120SOL    HW1 6495   3.320   4.071   1.357  0.1720 -0.4104 -0.2115
 2120SOL    HW2 6496   3.227   4.159   1.437  0.9762  0.3907 -0.1417
 2121SOL     OW 6497   4.493   4.018   2.524 -0.1953  0.5463  0.8748
 2121SOL    HW1 6498   4.436   3.943   2.512  0.3713  0.4735 -2.1691
 2121SOL    HW2 6499   4.577   3.980   2.552 -0.4483  0.2577  1.2555
 2122SOL     OW 6500   1.174   4.946   0.566 -0.5017  0.1747  0.6072
 2122SOL    HW1 6501   1.210   5.006   0.500  0.8062 -0.2569  0.8865
 2122SOL    HW2 6502   1.079   4.958   0.561 -0.3176  1.5690  0.0029
 2123SOL     OW 6503   3.644   4.416   4.996  0.0476 -0.0748  0.6197
 2123SOL    HW1 6504   3.652   4.441   4.904  1.0788  0.7241  0.9100
 2123SOL    HW2 6505   3.618   4.497   5.041  1.0793 -0.0661  1.2371
 2124SOL     OW 6506   4.253   4.822   1.581  0.5124 -0.6060 -0.5770
 2124SOL    HW1 6507   4.275   4.750   1.640 -0.9111  0.0592  0.8545
 2124SOL    HW2 6508   4.330   4.833   1.526  1.0387 -2.7216 -0.3299
 2125SOL     OW 6509   4.887   1.050   4.730 -0.2092 -0.4501 -0.1391
 2125SOL    HW1 6510   4.841   1.011   4.655  0.3086 -1.1340 -0.1133
 2125SOL    HW2 6511   4.974   1.072   4.696 -0.4123  0.4596 -0.0813
 2126SOL     OW 6512   4.435   1.457   2.913  0.3502 -0.6626 -0.4783
 2126SOL    HW1 6513   4.458   1.387   2.851 -0.6784 -1.5985  0.1555
 2126SOL    HW2 6514   4.381   1.413   2.979 -1.3141  0.9619 -0.6882
 2127SOL     OW 6515   4.352   3.851   4.446  0.1478  0.1902 -0.0143
 2127SOL    HW1 6516   4.263   3.820   4.461  1.6341 -4.6604  0.3211
 2127SOL    HW2 6517   4.359   3.854   4.350  0.3756 -2.5130 -0.1630
 2128SOL     OW 6518   1.935   0.556   1.204  0.3394 -0.2187  0.0038
 2128SOL    HW1 6519   2.009   0.549   1.264  1.1224  0.0220 -0.9307
 2128SOL    HW2 6520   1.960   0.505   1.127  0.9490  2.4477 -1.7015
 2129SOL     OW 6521   2.143   3.994   4.763 -0.0615 -0.3187  0.5654
 2129SOL    HW1 6522   2.190   4.014   4.681 -1.1566 -0.1854 -0.0502
 2129SOL    HW2 6523   2.058   4.036   4.752  0.2173  0.8403  2.3423
 2130SOL     OW 6524   1.278   2.834   3.032 -0.6385 -0.4562 -0.5269
 2130SOL    HW1 6525   1.263   2.771   2.961 -1.2575 -0.2798 -0.5557
 2130SOL    HW2 6526   1.373   2.847   3.032 -0.4485 -1.6942 -0.2552
 2131SOL     OW 6527   0.519   0.080   1.674  0.0569 -0.8931  0.1073
 2131SOL    HW1 6528   0.559   0.126   1.748 -0.2513  2.4478 -1.6250
 2131SOL    HW2 6529   0.427   0.106   1.675  0.2930  0.2786 -2.1125
 2132SOL     OW 6530   1.560   2.833   3.073  0.6320  0.2742 -0.0778
 2132SOL    HW1 6531   1.584   2.746   3.106  0.4203 -0.3651 -1.5286
 2132SOL    HW2 6532   1.642   2.867   3.037  0.5286  0.3320 -0.2548
 2133SOL     OW 6533   4.873   3.889   4.762 -0.3661  0.2093  0.0552
 2133SOL    HW1 6534   4.888   3.838   4.682  2.9854  1.8425 -0.5212
 2133SOL    HW2 6535   4.907   3.833   4.832  1.2026  0.6616 -0.3070
 2134SOL     OW 6536   1.691   1.003   2.950 -0.0911 -0.5201  0.1107
 2134SOL    HW1 6537   1.660   0.950   3.024  0.6134 -2.6494 -1.0397
 2134SOL    HW2 6538   1.635   0.978   2.877  0.3994  0.1674 -0.5177
 2135SOL     OW 6539   1.383   3.030   0.943 -0.1637  0.1949  0.1496
 2135SOL    HW1 6540   1.301   3.062   0.908  1.0078  2.6133 -0.5502
 2135SOL    HW2 6541   1.425   3.106   0.982  1.7584 -0.9505  0.4906
 2136SOL     OW 6542   0.345   3.776   1.828  0.2017 -0.1623 -0.2058
 2136SOL    HW1 6543   0.285   3.715   1.785 -0.0542  1.1029 -1.7634
 2136SOL    HW2 6544   0.287   3.841   1.868  0.4966 -0.1423  0.1902
 2137SOL     OW 6545   3.702   4.284   0.223 -0.0956 -0.7176 -0.5605
 2137SOL    HW1 6546   3.624   4.254   0.177 -0.4344  1.0673 -1.2411
 2137SOL    HW2 6547   3.723   4.368   0.182 -2.5815  3.0336  4.7130
 2138SOL     OW 6548   1.582   0.438   3.170  0.6383  0.9961  0.0370
 2138SOL    HW1 6549   1.529   0.450   3.249  1.6211  0.4318  0.7994
 2138SOL    HW2 6550   1.593   0.527   3.136  2.8952  1.7275  2.3449
 2139SOL     OW 6551   2.458   3.824   3.044 -0.2805 -0.0425  0.2283
 2139SOL    HW1 6552   2.416   3.744   3.013  2.8134 -1.9389  0.5688
 2139SOL    HW2 6553   2.461   3.814   3.139  1.7258 -0.4692  0.1600
 2140SOL     OW 6554   4.956   1.429   1.762  1.1135  0.1635 -0.5921
 2140SOL    HW1 6555   4.978   1.340   1.734  0.5526 -0.5478  1.0754
 2140SOL    HW2 6556   4.864   1.423   1.791  1.3021  1.0899  0.2593
 2141SOL     OW 6557   1.611   3.244   1.393  0.1621 -0.0086 -0.1315
 2141SOL    HW1 6558   1.546   3.207   1.453  1.3841 -1.0131  0.6396
 2141SOL    HW2 6559   1.601   3.193   1.313 -0.2361  0.0800 -0.1406
 2142SOL     OW 6560   3.250   2.103   1.638 -0.0513  0.0456 -0.3800
 2142SOL    HW1 6561   3.252   2.199   1.631  0.8050  0.0443 -0.2717
 2142SOL    HW2 6562   3.282   2.085   1.726  0.0011 -0.3434 -0.4772
 2143SOL     OW 6563   1.414   3.262   4.781  0.1722 -0.4888 -0.0549
 2143SOL    HW1 6564   1.471   3.190   4.752  1.1825 -0.4803  1.7781
 2143SOL    HW2 6565   1.353   3.221   4.842  0.1798  0.0441  0.3124
 2144SOL     OW 6566   0.059   2.957   2.875  0.2984  0.4084 -0.5028
 2144SOL    HW1 6567   0.053   2.916   2.789 -2.4935  0.3211 -0.3417
 2144SOL    HW2 6568   0.057   2.884   2.937 -0.3250  0.5724 -0.3215
 2145SOL     OW 6569   4.019   0.418   1.468 -0.0630 -0.2857  0.2803
 2145SOL    HW1 6570   4.059   0.355   1.408 -1.2408 -1.5322  0.7303
 2145SOL    HW2 6571   3.956   0.465   1.415 -1.2827 -1.5587  0.5387
 2146SOL     OW 6572   0.067   0.952   2.341 -0.1289  0.0248 -0.3485
 2146SOL    HW1 6573   0.014   0.918   2.413 -0.4719 -1.8075 -1.3774
 2146SOL    HW2 6574   0.154   0.966   2.379  0.7283 -4.2648 -0.1808
 2147SOL     OW 6575   2.285   2.448   3.993 -0.5386  0.6566 -0.5296
 2147SOL    HW1 6576   2.292   2.503   4.070  1.0775 -0.4195  0.1578
 2147SOL    HW2 6577   2.325   2.499   3.923  1.4879  0.2200  0.2254
 2148SOL     OW 6578   2.487   4.969   0.834 -0.0819 -0.3791 -0.1407
 2148SOL    HW1 6579   2.521   5.011   0.755 -1.8361 -0.7675 -1.1719
 2148SOL    HW2 6580   2.474   5.041   0.896  0.1371  0.1065 -0.6555
 2149SOL     OW 6581   1.295   0.371   3.237 -0.5703 -0.5624  0.4816
 2149SOL    HW1 6582   1.309   0.279   3.217  0.3352 -0.2037 -0.6781
 2149SOL    HW2 6583   1.322   0.417   3.157  0.5096  0.7964  1.5696
 2150SOL     OW 6584   4.300   1.559   0.772  0.5628  0.1083  0.5196
 2150SOL    HW1 6585   4.261   1.644   0.793  0.5700 -0.0105  1.0296
 2150SOL    HW2 6586   4.243   1.495   0.814  0.4975 -0.1478  0.0449
 2151SOL     OW 6587   3.599   2.537   4.335 -0.2337 -0.2829 -0.2054
 2151SOL    HW1 6588   3.537   2.597   4.375 -0.6993 -2.4200  2.5713
 2151SOL    HW2 6589   3.591   2.553   4.241 -3.9074  0.5569  0.1213
 2152SOL     OW 6590   1.631   0.933   3.248  0.3528 -0.0206  0.1632
 2152SOL    HW1 6591   1.720   0.945   3.215  0.0519 -1.2548 -1.1961
 2152SOL    HW2 6592   1.635   0.853   3.300  0.1012  0.1158  0.3967
 2153SOL     OW 6593   0.917   2.816   4.463  0.0483 -0.5443 -0.3168
 2153SOL    HW1 6594   0.844   2.765   4.428 -0.1214 -0.5232  0.0066
 2153SOL    HW2 6595   0.945   2.768   4.541 -0.7014  0.3294  0.5132
 2154SOL     OW 6596   4.500   2.930   0.975  0.2101  0.1937 -0.5789
 2154SOL    HW1 6597   4.484   2.892   1.061 -0.5024  0.1473 -0.7182
 2154SOL    HW2 6598   4.592   2.955   0.975  0.8120 -1.8596 -0.6131
 2155SOL     OW 6599   1.600   3.282   5.015 -0.2415 -0.6358 -0.0783
 2155SOL    HW1 6600   1.601   3.356   4.955 -1.7668  0.0269  0.6499
 2155SOL    HW2 6601   1.507   3.270   5.036  0.0766 -2.1460  0.5576
 2156SOL     OW 6602   4.906   1.895   0.111 -0.0867 -0.1316  0.1410
 2156SOL    HW1 6603   4.966   1.821   0.100 -0.0331 -0.4080  2.0368
 2156SOL    HW2 6604   4.908   1.940   0.027  0.6441 -1.7155 -0.7337
 2157SOL     OW 6605   2.302   0.356   0.482  0.2288 -0.4960 -0.0686
 2157SOL    HW1 6606   2.379   0.381   0.432 -0.4025 -0.4772 -1.0631
 2157SOL    HW2 6607   2.335   0.336   0.569  1.3925 -0.7432 -0.5456
 2158SOL     OW 6608   4.940   4.834   3.379 -0.0493 -0.1057 -0.2575
 2158SOL    HW1 6609   5.035   4.848   3.384 -0.1814  0.2298  2.5638
 2158SOL    HW2 6610   4.927   4.792   3.294  2.5405  0.4257 -1.0000
 2159SOL     OW 6611   4.622   3.498   2.395  0.7570 -0.1345 -0.1915
 2159SOL    HW1 6612   4.627   3.471   2.486  0.6599  0.6136  0.0392
 2159SOL    HW2 6613   4.553   3.444   2.357 -0.8252  1.1651  0.7600
 2160SOL     OW 6614   3.053   2.635   4.620  0.2898 -0.0371 -0.3633
 2160SOL    HW1 6615   3.083   2.557   4.574 -2.7105 -0.7609 -1.3599
 2160SOL    HW2 6616   3.108   2.640   4.699  1.6420 -2.1808 -1.1001
 2161SOL     OW 6617   4.165   1.150   4.260 -0.3099 -0.2949 -0.0083
 2161SOL    HW1 6618   4.198   1.240   4.259  0.7162 -0.6231  1.4604
 2161SOL    HW2 6619   4.187   1.116   4.173 -0.9753  0.9389 -0.6919
 2162SOL     OW 6620   3.496   2.418   3.059 -0.0880 -0.7612 -0.4383
 2162SOL    HW1 6621   3.481   2.508   3.088  1.7142 -1.2921  2.6443
 2162SOL    HW2 6622   3.411   2.375   3.067 -1.2266  0.8026 -2.9961
 2163SOL     OW 6623   1.336   3.514   2.926  0.1776 -0.2394  0.7614
 2163SOL    HW1 6624   1.296   3.462   2.857  1.1873  1.9459 -1.6611
 2163SOL    HW2 6625   1.417   3.468   2.947 -0.0658 -0.8475  0.3847
 2164SOL     OW 6626   1.963   4.249   0.238  0.0452 -0.1743  0.6214
 2164SOL    HW1 6627   1.987   4.340   0.259 -1.1951 -0.1841  2.3385
 2164SOL    HW2 6628   1.982   4.240   0.145  1.2054  1.5147  0.6511
 2165SOL     OW 6629   0.425   3.941   4.200  0.0432 -1.2691 -0.6798
 2165SOL    HW1 6630   0.399   4.030   4.176 -0.6745 -1.5108 -0.8139
 2165SOL    HW2 6631   0.441   3.945   4.294  1.3097 -0.6943 -0.8963
 2166SOL     OW 6632   1.213   4.902   1.527  0.4144  0.4677  0.0077
 2166SOL    HW1 6633   1.154   4.827   1.539 -0.0714  0.7859 -0.3453
 2166SOL    HW2 6634   1.219   4.913   1.432 -0.3976  1.5454  0.0634
 2167SOL     OW 6635   3.102   1.808   1.085 -0.3970  0.2941 -0.4070
 2167SOL    HW1 6636   3.162   1.852   1.026 -0.2726  0.1159 -0.4146
 2167SOL    HW2 6637   3.029   1.779   1.030 -0.4517  0.4382 -0.4113
 2168SOL     OW 6638   1.745   1.691   2.286  0.1009 -0.5517  0.0835
 2168SOL    HW1 6639   1.732   1.780   2.320  3.2232 -0.5038  1.5063
 2168SOL    HW2 6640   1.677   1.639   2.329  0.0012  0.6720  1.5086
 2169SOL     OW 6641   4.505   4.980   1.691 -0.0046  0.2452  0.2941
 2169SOL    HW1 6642   4.560   4.930   1.630 -0.5263  0.0781 -0.0457
 2169SOL    HW2 6643   4.521   5.072   1.667 -0.4779  0.1702 -0.3421
 2170SOL     OW 6644   2.853   0.314   0.101 -0.6526 -0.7507  0.1162
 2170SOL    HW1 6645   2.794   0.389   0.089 -0.9721 -1.3549 -3.1892
 2170SOL    HW2 6646   2.923   0.347   0.157 -0.6307  2.1799 -1.4151
 2171SOL     OW 6647   2.723   3.432   3.453 -0.0091  1.4266  0.3077
 2171SOL    HW1 6648   2.637   3.461   3.422 -0.0925  0.6536 -0.2033
 2171SOL    HW2 6649   2.783   3.500   3.423 -0.3488  1.6312  0.0786
 2172SOL     OW 6650   3.530   1.589   1.503 -0.5314  0.3535  0.6113
 2172SOL    HW1 6651   3.578   1.667   1.532  1.0681 -0.2164 -0.3714
 2172SOL    HW2 6652   3.490   1.615   1.421 -0.1163  0.1939  0.3555
 2173SOL     OW 6653   1.958   4.518   3.313  0.2455 -0.1475  0.1700
 2173SOL    HW1 6654   2.017   4.536   3.386 -1.1348  0.1866  1.2533
 2173SOL    HW2 6655   1.873   4.550   3.343 -0.0524  1.5713 -2.2589
 2174SOL     OW 6656   4.619   2.446   3.704 -0.3477 -0.6226  0.2753
 2174SOL    HW1 6657   4.629   2.468   3.797  2.4057  0.9366 -0.2807
 2174SOL    HW2 6658   4.663   2.362   3.695 -0.6099 -0.7713  0.3786
 2175SOL     OW 6659   4.917   2.686   0.994 -0.4024  0.0223 -0.3169
 2175SOL    HW1 6660   4.880   2.762   0.950  0.0242  0.8900  0.7753
 2175SOL    HW2 6661   4.985   2.721   1.051  0.8012 -1.3452 -0.8514
 2176SOL     OW 6662   4.061   1.255   4.968 -0.3044  0.2113 -0.2177
 2176SOL    HW1 6663   4.057   1.291   5.057  2.0721 -1.6399  0.7490
 2176SOL    HW2 6664   4.146   1.284   4.935 -0.5788 -0.2623 -1.3634
 2177SOL     OW 6665   1.349   4.225   0.272  0.3218  0.4147  0.0175
 2177SOL    HW1 6666   1.431   4.182   0.249 -0.6081 -0.4590 -1.8917
 2177SOL    HW2 6667   1.281   4.161   0.251 -0.8995  1.3534  0.9198
 2178SOL     OW 6668   0.712   4.282   0.253 -0.5642  0.1398 -0.2190
 2178SOL    HW1 6669   0.724   4.226   0.329 -1.0413 -0.9242 -0.8949
 2178SOL    HW2 6670   0.707   4.370   0.288 -1.0752 -0.3598  1.0139
 2179SOL     OW 6671   1.987   3.653   2.407  0.1157 -0.4438 -0.1391
 2179SOL    HW1 6672   1.978   3.729   2.464 -0.8278  1.7859 -2.9991
 2179SOL    HW2 6673   2.026   3.688   2.327 -0.8760 -2.8526 -1.7917
 2180SOL     OW 6674   2.389   1.541   4.544 -0.0346  0.1268  0.3186
 2180SOL    HW1 6675   2.361   1.631   4.524  1.0325  0.1390 -1.2436
 2180SOL    HW2 6676   2.339   1.486   4.484  0.6281 -0.1562  0.0145
 2181SOL     OW 6677   4.179   2.984   1.894  0.6204  0.4290 -0.6352
 2181SOL    HW1 6678   4.217   3.044   1.830  0.8449  0.7114 -0.2443
 2181SOL    HW2 6679   4.182   2.899   1.852  1.5102  0.4758 -0.6971
 2182SOL     OW 6680   2.233   1.996   0.363  0.0602  0.3088 -0.2447
 2182SOL    HW1 6681   2.170   2.049   0.315 -1.1514 -1.3420 -0.5822
 2182SOL    HW2 6682   2.277   1.944   0.295  1.0899  0.7269  0.0878
 2183SOL     OW 6683   4.380   0.400   2.955  0.1996 -0.5116  0.5604
 2183SOL    HW1 6684   4.440   0.329   2.977 -0.2335 -0.3910  2.2334
 2183SOL    HW2 6685   4.314   0.398   3.024  0.7464  2.1786  1.2874
 2184SOL     OW 6686   0.504   0.232   3.598  0.1328  0.1497 -0.3521
 2184SOL    HW1 6687   0.533   0.247   3.508 -0.1252  0.0376 -0.4559
 2184SOL    HW2 6688   0.554   0.294   3.651  2.6088 -1.8590 -0.1666
 2185SOL     OW 6689   3.377   3.124   2.771  0.6814  0.3977 -0.0426
 2185SOL    HW1 6690   3.346   3.035   2.788 -0.9996  1.1682  1.2556
 2185SOL    HW2 6691   3.348   3.143   2.682 -1.4957  0.5899  0.6464
 2186SOL     OW 6692   0.455   0.251   0.272 -0.2861 -0.2972 -0.2713
 2186SOL    HW1 6693   0.522   0.278   0.335  1.9260  0.1017 -2.6220
 2186SOL    HW2 6694   0.437   0.160   0.294  0.6256 -0.2568  0.7501
 2187SOL     OW 6695   1.992   3.739   3.206  0.2545  0.3136 -0.4286
 2187SOL    HW1 6696   1.937   3.817   3.215 -0.4279 -0.1683 -0.4045
 2187SOL    HW2 6697   1.962   3.679   3.274 -0.4430 -0.6762 -1.5695
 2188SOL     OW 6698   3.130   3.358   3.703 -0.4160 -0.3219 -0.4872
 2188SOL    HW1 6699   3.099   3.269   3.724 -3.5459  0.9712  1.1242
 2188SOL    HW2 6700   3.122   3.405   3.786  0.3843  1.6908 -1.4994
 2189SOL     OW 6701   4.149   4.009   2.544  0.1130  0.4620  0.1822
 2189SOL    HW1 6702   4.090   4.077   2.510  1.3347  0.9240 -1.1060
 2189SOL    HW2 6703   4.202   3.984   2.469 -0.0315 -1.6545  0.7390
 2190SOL     OW 6704   2.816   0.081   5.011  0.1892 -0.4022 -0.6094
 2190SOL    HW1 6705   2.768   0.091   4.929 -1.1392 -1.6692 -0.0148
 2190SOL    HW2 6706   2.835   0.171   5.039  0.7789  0.0444 -2.3326
 2191SOL     OW 6707   1.583   4.510   4.962 -0.4135 -0.0356  0.0644
 2191SOL    HW1 6708   1.640   4.468   4.898 -1.9682  1.7075 -2.6523
 2191SOL    HW2 6709   1.504   4.456   4.963 -0.9173  0.6605 -0.5684
 2192SOL     OW 6710   2.784   3.817   3.639 -0.3278  0.0258  0.2435
 2192SOL    HW1 6711   2.757   3.858   3.556  0.8963  0.7610  0.1919
 2192SOL    HW2 6712   2.877   3.798   3.628 -0.7418 -2.4005  0.4540
 2193SOL     OW 6713   1.323   0.954   2.583  0.1524 -0.1918 -0.2261
 2193SOL    HW1 6714   1.234   0.946   2.618 -0.1140  0.8179 -0.6304
 2193SOL    HW2 6715   1.338   1.049   2.579  2.0060 -0.3265  1.7110
 2194SOL     OW 6716   2.311   2.376   3.654 -0.4476  0.0814  0.1403
 2194SOL    HW1 6717   2.232   2.382   3.600 -1.7599  2.1719  2.1157
 2194SOL    HW2 6718   2.281   2.340   3.737  1.0230 -0.5288  0.4447
 2195SOL     OW 6719   2.211   2.780   3.731  0.6070  0.5875 -0.4441
 2195SOL    HW1 6720   2.151   2.854   3.734  0.7017  0.6381  0.5749
 2195SOL    HW2 6721   2.166   2.715   3.677  1.2718  2.0007 -2.7952
 2196SOL     OW 6722   2.363   1.796   3.198 -0.2631  0.3723 -0.0563
 2196SOL    HW1 6723   2.447   1.840   3.190 -0.8146  1.3715 -0.5187
 2196SOL    HW2 6724   2.346   1.794   3.292  0.4690 -0.2327  0.0747
 2197SOL     OW 6725   4.498   2.384   4.558 -0.5648 -0.7266  0.1022
 2197SOL    HW1 6726   4.561   2.456   4.549  2.6167 -3.2929  0.1238
 2197SOL    HW2 6727   4.465   2.371   4.470 -1.0451  0.5872  0.0600
 2198SOL     OW 6728   2.097   0.531   0.196  0.2629 -0.0702 -0.1576
 2198SOL    HW1 6729   2.085   0.475   0.119 -1.1121 -0.9480  0.6431
 2198SOL    HW2 6730   2.014   0.579   0.204  0.5307  0.2930  0.5349
 2199SOL     OW 6731   3.069   1.676   1.566  0.1004  0.1610 -0.7158
 2199SOL    HW1 6732   3.032   1.760   1.593 -0.0866 -0.2398  0.3347
 2199SOL    HW2 6733   3.117   1.696   1.486 -0.1335  1.2243 -0.6142
 2200SOL     OW 6734   2.104   0.715  -0.020  0.3148  0.5065 -0.4118
 2200SOL    HW1 6735   2.077   0.802   0.010  1.2055  0.8440 -0.5537
 2200SOL    HW2 6736   2.068   0.655   0.046 -1.9042  0.7747 -1.2782
 2201SOL     OW 6737   4.517   0.186   4.916  1.0932  0.7859 -0.0186
 2201SOL    HW1 6738   4.608   0.197   4.889  0.8940  1.8822 -0.2853
 2201SOL    HW2 6739   4.483   0.118   4.858  1.4276  1.2032 -0.7161
 2202SOL     OW 6740   0.402   4.038   0.440 -0.2897  0.7362 -0.1158
 2202SOL    HW1 6741   0.347   4.069   0.367 -1.2853  2.2246  1.2140
 2202SOL    HW2 6742   0.479   4.094   0.437  0.6632 -0.5470 -1.2175
 2203SOL     OW 6743   0.737   0.072   4.785  0.3393 -0.8858  0.6298
 2203SOL    HW1 6744   0.664   0.092   4.843 -0.4328 -0.0727 -0.5677
 2203SOL    HW2 6745   0.781  -0.002   4.826  0.1610 -0.0227  2.5150
 2204SOL     OW 6746   0.965   1.635   2.911 -0.0053  0.2125  0.0059
 2204SOL    HW1 6747   0.986   1.700   2.843 -1.2495  1.2323  0.5316
 2204SOL    HW2 6748   1.047   1.588   2.927  0.4625  0.3531 -1.7606
 2205SOL     OW 6749   0.455   1.667   4.085  0.1266  0.2942  0.0868
 2205SOL    HW1 6750   0.386   1.600   4.081 -1.1999  1.5880  0.5277
 2205SOL    HW2 6751   0.455   1.695   4.176  0.9578  0.6144 -0.0106
 2206SOL     OW 6752   2.125   0.512   4.057 -0.4883 -0.4607  0.4152
 2206SOL    HW1 6753   2.207   0.494   4.011  0.3106  0.4117  1.4415
 2206SOL    HW2 6754   2.116   0.440   4.119 -1.6826 -1.7610 -1.1818
 2207SOL     OW 6755   0.103   3.677   2.278 -0.3092 -0.0613  0.1927
 2207SOL    HW1 6756   0.023   3.640   2.316  0.9482 -2.0826  1.0293
 2207SOL    HW2 6757   0.096   3.660   2.185  0.0461 -2.1534  0.5086
 2208SOL     OW 6758   1.870   1.056   0.614 -0.4309  0.9273 -0.1609
 2208SOL    HW1 6759   1.864   1.072   0.708  3.4913 -1.0778  0.6124
 2208SOL    HW2 6760   1.955   1.091   0.589 -1.4677  1.6212 -3.0986
 2209SOL     OW 6761   2.130   4.936   3.960  0.0679  0.1688 -0.2182
 2209SOL    HW1 6762   2.185   5.013   3.975 -1.5707  1.0486  1.7207
 2209SOL    HW2 6763   2.047   4.972   3.930 -0.7676 -0.8057  0.8369
 2210SOL     OW 6764   2.493   0.881   2.629  0.2766 -0.0132  0.0518
 2210SOL    HW1 6765   2.522   0.960   2.584 -1.3802 -0.5984 -2.2432
 2210SOL    HW2 6766   2.571   0.826   2.634  0.8953  0.7905 -0.5046
 2211SOL     OW 6767   4.464   1.582   2.003  0.5394  0.3581 -0.2345
 2211SOL    HW1 6768   4.378   1.549   1.975  0.0102  2.2870 -1.0454
 2211SOL    HW2 6769   4.516   1.582   1.923  1.5264 -1.3323  0.3618
 2212SOL     OW 6770   0.109   2.054   0.561  0.5562 -0.2532  0.4988
 2212SOL    HW1 6771   0.164   1.980   0.587 -0.3656 -0.6418  1.4336
 2212SOL    HW2 6772   0.034   2.014   0.518 -0.3382  0.0462  1.7079
 2213SOL     OW 6773   0.287   0.539   4.573 -0.8638 -0.4053  0.4325
 2213SOL    HW1 6774   0.244   0.544   4.658 -4.4857 -2.0039 -1.1425
 2213SOL    HW2 6775   0.363   0.598   4.582 -1.2769 -0.2071  4.5555
 2214SOL     OW 6776   1.177   2.088   0.504  0.0196  0.2290 -0.6995
 2214SOL    HW1 6777   1.248   2.026   0.520  0.0610  0.6281  0.8948
 2214SOL    HW2 6778   1.221   2.172   0.495 -0.1426  0.2494 -1.3085
 2215SOL     OW 6779   2.712   2.745   0.807  0.4144 -0.4704  0.1508
 2215SOL    HW1 6780   2.650   2.750   0.880  1.2956  0.4356  0.8728
 2215SOL    HW2 6781   2.715   2.834   0.773  1.5306 -0.4287  0.3236
 2216SOL     OW 6782   3.961   4.079   2.813 -0.2461  0.2331  0.0771
 2216SOL    HW1 6783   4.045   4.115   2.785  1.1682 -1.5556  1.7126
 2216SOL    HW2 6784   3.900   4.153   2.811  1.2319  1.4767 -1.5748
 2217SOL     OW 6785   0.440   1.251   3.162 -0.4523 -1.0127  0.1725
 2217SOL    HW1 6786   0.443   1.318   3.094 -3.3144 -1.9571 -1.0165
 2217SOL    HW2 6787   0.369   1.278   3.220  0.0521 -1.7267  1.1583
 2218SOL     OW 6788   2.313   2.445   0.644 -0.4013 -0.1604  0.1458
 2218SOL    HW1 6789   2.338   2.527   0.685 -1.2992 -1.4454  3.5954
 2218SOL    HW2 6790   2.386   2.386   0.663 -0.9921 -0.8975  0.1563
 2219SOL     OW 6791   4.050   3.279   1.806  0.6784  0.1380 -0.0795
 2219SOL    HW1 6792   4.087   3.270   1.718  1.8232 -0.5071  0.4318
 2219SOL    HW2 6793   3.994   3.202   1.817  3.6501 -2.0927  1.1267
 2220SOL     OW 6794   0.982   2.177   4.979  0.1036  0.2921 -0.4672
 2220SOL    HW1 6795   0.935   2.248   5.022  0.6348 -1.1082  2.7113
 2220SOL    HW2 6796   0.916   2.109   4.966  0.2573  0.1419 -0.4630
 2221SOL     OW 6797   1.121   4.389   4.019 -0.3924  0.1814  0.1760
 2221SOL    HW1 6798   1.150   4.472   3.982 -0.6161  2.2224  4.1641
 2221SOL    HW2 6799   1.201   4.336   4.026  0.0124  0.6117 -0.9665
 2222SOL     OW 6800   1.608   4.576   3.342  0.8790 -0.0175 -0.7953
 2222SOL    HW1 6801   1.516   4.579   3.369  1.1807  0.0247  0.3041
 2222SOL    HW2 6802   1.608   4.611   3.253 -0.1448  0.1521 -0.7453
 2223SOL     OW 6803   4.368   1.159   0.498 -0.3947  0.5349  1.0720
 2223SOL    HW1 6804   4.410   1.239   0.529 -0.0838  0.3449  1.1468
 2223SOL    HW2 6805   4.441   1.099   0.481 -0.6156  0.3283  0.8486
 2224SOL     OW 6806   4.342   2.600   3.005 -0.2889 -0.1102  0.1580
 2224SOL    HW1 6807   4.299   2.553   2.934  0.0199 -0.1884  0.0204
 2224SOL    HW2 6808   4.334   2.692   2.981  0.9430 -0.1884 -0.6426
 2225SOL     OW 6809   2.545   3.725   3.386  0.0606  0.2394 -0.9697
 2225SOL    HW1 6810   2.638   3.740   3.401 -0.2860  1.3956  0.1963
 2225SOL    HW2 6811   2.542   3.666   3.310  1.7340 -0.1412 -0.7771
 2226SOL     OW 6812   1.154   3.534   1.006 -0.6574 -0.2214  0.2178
 2226SOL    HW1 6813   1.119   3.615   1.043  2.3026  0.4647  1.8588
 2226SOL    HW2 6814   1.202   3.563   0.928 -1.3174 -0.7106 -0.3749
 2227SOL     OW 6815   0.210   1.621   2.157 -0.3036 -0.0560 -0.1418
 2227SOL    HW1 6816   0.134   1.599   2.211  0.9610 -1.2942  1.2347
 2227SOL    HW2 6817   0.202   1.563   2.081  1.1654 -3.0428  1.8085
 2228SOL     OW 6818   3.522   3.632   3.373  0.7281  0.3492  0.0991
 2228SOL    HW1 6819   3.536   3.545   3.335  0.5374  1.4339 -2.7295
 2228SOL    HW2 6820   3.427   3.645   3.366  0.8786  1.1817 -0.5304
 2229SOL     OW 6821   3.571   3.916   0.594  0.7446  0.8130  0.2274
 2229SOL    HW1 6822   3.609   3.847   0.540  1.1409  0.1561  1.3062
 2229SOL    HW2 6823   3.556   3.988   0.534 -2.1497 -1.0564 -1.5646
 2230SOL     OW 6824   2.092   2.434   4.735  0.0334  0.2202 -0.4361
 2230SOL    HW1 6825   2.114   2.349   4.698 -1.5020 -0.1247 -0.5986
 2230SOL    HW2 6826   2.166   2.491   4.710  1.5038 -1.2240  0.4127
 2231SOL     OW 6827   0.976   4.720   2.611 -0.1849  0.8086 -0.4116
 2231SOL    HW1 6828   1.035   4.663   2.561 -0.4100  1.7768 -1.8370
 2231SOL    HW2 6829   0.889   4.684   2.595 -0.2192  0.8706 -0.3611
 2232SOL     OW 6830   3.630   1.600   3.281 -0.0364  0.0803  0.7490
 2232SOL    HW1 6831   3.555   1.628   3.335 -1.0758 -0.3769 -0.4058
 2232SOL    HW2 6832   3.592   1.585   3.195  1.2796 -0.8675  0.3168
 2233SOL     OW 6833   1.072   4.117   3.093  0.2120  0.7879 -0.2910
 2233SOL    HW1 6834   1.162   4.101   3.064 -0.2576 -1.0582 -0.9221
 2233SOL    HW2 6835   1.023   4.127   3.012 -0.3915  0.1276 -0.0189
 2234SOL     OW 6836   2.239   2.761   3.026  0.1062  0.2650  0.0244
 2234SOL    HW1 6837   2.189   2.691   3.068  0.3344  0.0679 -0.0247
 2234SOL    HW2 6838   2.328   2.726   3.021 -0.2796 -0.5694 -2.4595
 2235SOL     OW 6839   0.638   4.245   2.205  0.2029  0.0198 -0.2645
 2235SOL    HW1 6840   0.602   4.278   2.122  1.5405 -0.2030 -0.9702
 2235SOL    HW2 6841   0.568   4.256   2.268 -2.4972 -3.6395 -2.2492
 2236SOL     OW 6842   2.256   3.090   2.289 -0.3954 -0.1064 -0.2675
 2236SOL    HW1 6843   2.343   3.071   2.254  0.8105  0.8921  2.0137
 2236SOL    HW2 6844   2.267   3.171   2.338 -1.8198 -1.6291  2.7975
 2237SOL     OW 6845   4.295   3.641   4.977  0.0687 -0.3756 -0.1974
 2237SOL    HW1 6846   4.257   3.604   4.898 -0.6247 -2.7483  1.1525
 2237SOL    HW2 6847   4.322   3.566   5.029 -0.5926  1.0023  2.3497
 2238SOL     OW 6848   0.626   4.956   0.199  0.2267 -1.0306  0.7621
 2238SOL    HW1 6849   0.610   4.891   0.267  0.9409 -0.3809  1.5738
 2238SOL    HW2 6850   0.698   5.009   0.233  1.0297 -1.0760 -0.7771
 2239SOL     OW 6851   4.321   4.978   2.286  0.2655  0.0749 -0.4157
 2239SOL    HW1 6852   4.356   5.065   2.301 -1.3942  0.7723 -0.4034
 2239SOL    HW2 6853   4.266   4.961   2.363  0.7928 -1.1232 -0.2714
 2240SOL     OW 6854   1.397   1.079   0.435  0.0257 -0.6123  0.3593
 2240SOL    HW1 6855   1.488   1.082   0.467  0.2828 -0.7744 -0.3229
 2240SOL    HW2 6856   1.386   0.988   0.406  1.1407  0.2981 -3.6396
 2241SOL     OW 6857   1.784   1.573   1.508 -0.1992 -0.2153 -0.4364
 2241SOL    HW1 6858   1.816   1.511   1.442  0.3372  0.1297 -0.5119
 2241SOL    HW2 6859   1.864   1.614   1.542 -0.5353  0.2716 -0.2319
 2242SOL     OW 6860   3.412   4.383   4.516 -0.4604  0.3462  0.4467
 2242SOL    HW1 6861   3.432   4.296   4.480  0.0085  0.5414  0.2293
 2242SOL    HW2 6862   3.394   4.437   4.440  1.2134  0.9342  0.4238
 2243SOL     OW 6863   4.680   1.701   1.551  0.0511 -0.2167 -0.7134
 2243SOL    HW1 6864   4.671   1.705   1.456 -1.1932 -3.7316 -0.8756
 2243SOL    HW2 6865   4.768   1.736   1.568 -0.8459  3.5363 -2.7082
 2244SOL     OW 6866   1.277   2.812   0.100 -0.1101  0.0159  0.5065
 2244SOL    HW1 6867   1.253   2.793   0.191  1.2595 -2.4090  0.4418
 2244SOL    HW2 6868   1.209   2.768   0.048  0.5491 -0.8786  0.3753
 2245SOL     OW 6869   1.665   4.073   2.342  0.1157  0.2576  0.1661
 2245SOL    HW1 6870   1.727   4.059   2.271 -0.4539 -3.1420  0.1487
 2245SOL    HW2 6871   1.663   3.989   2.389 -1.4241  1.5578  2.6707
 2246SOL     OW 6872   1.168   0.624   2.014  0.2457  0.6799  0.7790
 2246SOL    HW1 6873   1.103   0.607   2.082 -0.2929  0.8734  0.3214
 2246SOL    HW2 6874   1.206   0.538   1.995 -0.4680  0.4268  0.4674
 2247SOL     OW 6875   3.249   0.791   3.717  0.5290  0.2832 -0.3898
 2247SOL    HW1 6876   3.296   0.853   3.662  0.1569  0.0228 -1.0313
 2247SOL    HW2 6877   3.314   0.725   3.740  1.6533  2.2577  2.5804
 2248SOL     OW 6878   1.493   4.335   0.879  0.3379  0.3381  0.6664
 2248SOL    HW1 6879   1.550   4.295   0.944 -1.0431 -0.8451  1.2181
 2248SOL    HW2 6880   1.413   4.356   0.927 -0.2611  0.5765 -0.3954
 2249SOL     OW 6881   4.673   1.923   3.816  0.2030  0.2470  0.4842
 2249SOL    HW1 6882   4.610   1.878   3.760  1.1192 -1.8661  1.0542
 2249SOL    HW2 6883   4.755   1.922   3.767  0.0354  2.2961  0.0716
 2250SOL     OW 6884   3.963   3.726   0.862 -0.1453  0.0564 -0.8988
 2250SOL    HW1 6885   3.912   3.655   0.822 -2.9760  1.1778  0.4457
 2250SOL    HW2 6886   3.992   3.780   0.789 -1.2059 -0.4423 -1.7047
 2251SOL     OW 6887   2.002   0.588   2.324 -0.2311  0.3489 -0.5567
 2251SOL    HW1 6888   2.092   0.559   2.333 -0.3797  0.0273 -0.0219
 2251SOL    HW2 6889   1.993   0.659   2.387 -0.1990  0.7458 -1.0018
 2252SOL     OW 6890   2.237   2.551   0.404  0.1358  0.3712 -0.1442
 2252SOL    HW1 6891   2.281   2.516   0.482 -2.3667 -0.6133  0.9361
 2252SOL    HW2 6892   2.298   2.616   0.369  1.1303  1.3494  3.0230
 2253SOL     OW 6893   4.768   1.733   0.272 -0.0230 -0.1306 -0.3003
 2253SOL    HW1 6894   4.673   1.735   0.260 -0.2768  0.9929  1.5233
 2253SOL    HW2 6895   4.802   1.798   0.211 -0.6368  0.8510  0.3756
 2254SOL     OW 6896   1.309   2.481   4.944 -0.6278 -0.2354 -0.0670
 2254SOL    HW1 6897   1.328   2.485   5.038 -0.8608 -3.3076  0.1952
 2254SOL    HW2 6898   1.394   2.492   4.902 -0.5117  1.1082  0.4556
 2255SOL     OW 6899   4.702   3.491   0.109 -0.7642 -0.3266 -0.4592
 2255SOL    HW1 6900   4.671   3.545   0.036  0.5509 -1.6189 -2.0520
 2255SOL    HW2 6901   4.647   3.516   0.182 -1.0882  2.1970 -1.4706
 2256SOL     OW 6902   3.395   3.951   1.086 -0.4243 -0.0038  0.5601
 2256SOL    HW1 6903   3.475   3.985   1.047 -0.4311 -1.5971 -0.9701
 2256SOL    HW2 6904   3.378   4.008   1.161  2.1905  0.2855  1.0054
 2257SOL     OW 6905   4.478   0.445   3.878 -0.0315  1.1135  0.4845
 2257SOL    HW1 6906   4.532   0.391   3.822 -1.2284 -0.4238  0.7355
 2257SOL    HW2 6907   4.447   0.516   3.822  0.1909  0.5715 -0.3290
 2258SOL     OW 6908   2.406   4.012   3.893 -0.0050 -0.5603  0.4746
 2258SOL    HW1 6909   2.313   4.035   3.904  0.0201 -0.4172  0.3929
 2258SOL    HW2 6910   2.453   4.093   3.913  0.0239 -0.1746 -0.9924
 2259SOL     OW 6911   0.764   2.743   3.734  0.3786  0.4592 -0.2340
 2259SOL    HW1 6912   0.744   2.789   3.816 -0.9338 -0.0211 -0.2582
 2259SOL    HW2 6913   0.769   2.651   3.759  1.2384  0.4274 -0.4906
 2260SOL     OW 6914   2.094   3.399   0.665 -0.6446  0.2680  0.8384
 2260SOL    HW1 6915   2.009   3.355   0.654 -0.1237 -0.4152 -0.8880
 2260SOL    HW2 6916   2.081   3.485   0.623 -0.4712  0.1221  0.4786
 2261SOL     OW 6917   1.861   4.110   1.503  0.2005 -0.1162  0.1014
 2261SOL    HW1 6918   1.805   4.047   1.458  0.6495  1.2005 -2.5128
 2261SOL    HW2 6919   1.802   4.179   1.531  0.1425 -0.0268 -0.2314
 2262SOL     OW 6920   1.412   4.311   4.289 -0.0435  0.8208 -0.1992
 2262SOL    HW1 6921   1.477   4.258   4.334 -0.6294  2.5845  2.9641
 2262SOL    HW2 6922   1.331   4.259   4.294  0.1483  0.5134 -0.2753
 2263SOL     OW 6923   4.436   0.996   4.497  0.3886 -0.2079 -0.1975
 2263SOL    HW1 6924   4.485   1.076   4.479  0.7918 -0.1741  0.9370
 2263SOL    HW2 6925   4.350   1.027   4.525 -0.6969 -0.2868 -3.1156
 2264SOL     OW 6926   4.240   0.132   3.443  0.8266  0.2210  0.1300
 2264SOL    HW1 6927   4.265   0.050   3.401  0.3537 -0.0024  0.2778
 2264SOL    HW2 6928   4.179   0.106   3.512 -0.4391  0.8274 -0.7362
 2265SOL     OW 6929   0.657   3.723   1.584  0.0894  0.4903 -0.2001
 2265SOL    HW1 6930   0.585   3.678   1.540  1.3211 -0.8850 -0.9248
 2265SOL    HW2 6931   0.615   3.794   1.633 -1.8139 -0.6696 -0.0351
 2266SOL     OW 6932   3.177   0.853   2.857 -0.2104  0.2650  0.3038
 2266SOL    HW1 6933   3.215   0.770   2.829  1.3304  0.7868  0.7533
 2266SOL    HW2 6934   3.220   0.873   2.940  1.8753  3.0381 -1.2966
 2267SOL     OW 6935   1.376   0.561   4.643  0.8235 -0.6515 -0.0477
 2267SOL    HW1 6936   1.337   0.512   4.715 -2.9436  3.8737  1.4709
 2267SOL    HW2 6937   1.311   0.557   4.573  0.8876  1.1357 -0.2550
 2268SOL     OW 6938   4.166   4.919   2.509 -0.1818 -0.0863  0.2695
 2268SOL    HW1 6939   4.156   4.830   2.477 -0.5738  0.0018  0.1447
 2268SOL    HW2 6940   4.239   4.914   2.571 -1.8471 -1.0463  2.3088
 2269SOL     OW 6941   0.584   0.503   0.158 -0.8810  0.2200  0.2810
 2269SOL    HW1 6942   0.540   0.426   0.194 -0.6788 -0.3242 -0.6142
 2269SOL    HW2 6943   0.649   0.468   0.097 -1.4508  1.1097 -0.8869
 2270SOL     OW 6944   1.043   2.798   3.718  0.0444 -0.1256 -0.1873
 2270SOL    HW1 6945   1.047   2.880   3.767  0.5850  0.2885 -0.9020
 2270SOL    HW2 6946   0.951   2.790   3.693 -0.0059  0.2811 -0.1465
 2271SOL     OW 6947   2.631   2.110   3.555  0.3739 -0.5608  0.0669
 2271SOL    HW1 6948   2.536   2.105   3.561  0.1893  2.3463  1.1014
 2271SOL    HW2 6949   2.662   2.088   3.644  0.6499 -1.0533 -0.1468
 2272SOL     OW 6950   2.070   2.969   3.140  0.8366 -0.2349  0.7354
 2272SOL    HW1 6951   2.077   2.990   3.047 -0.6224 -1.1051  0.3987
 2272SOL    HW2 6952   2.139   2.905   3.156  0.5197 -0.7756  0.0135
 2273SOL     OW 6953   2.455   0.514   1.608 -0.4625 -0.2735 -0.0652
 2273SOL    HW1 6954   2.439   0.598   1.564 -0.5176  0.7918  1.8272
 2273SOL    HW2 6955   2.487   0.456   1.540 -1.3134  1.0141 -1.6391
 2274SOL     OW 6956   4.204   0.093   3.909 -0.3122  0.1219 -0.1670
 2274SOL    HW1 6957   4.283   0.050   3.877 -0.9352 -0.2530 -1.2587
 2274SOL    HW2 6958   4.151   0.022   3.945  0.2306  0.4929  1.4651
 2275SOL     OW 6959   3.614   2.680   3.837 -0.1158 -0.2470 -0.0736
 2275SOL    HW1 6960   3.553   2.635   3.779 -0.1325  1.0653 -1.1240
 2275SOL    HW2 6961   3.666   2.610   3.876 -2.3896 -1.4360  1.0405
 2276SOL     OW 6962   4.830   4.586   1.908 -0.0112 -0.0243  0.1378
 2276SOL    HW1 6963   4.761   4.565   1.845 -0.6659  2.1096  0.0652
 2276SOL    HW2 6964   4.783   4.610   1.988  0.7987 -2.3361  1.3958
 2277SOL     OW 6965   0.813   1.204   2.389  0.0908  0.0676  0.0129
 2277SOL    HW1 6966   0.881   1.148   2.427  0.6285  0.8213  0.1759
 2277SOL    HW2 6967   0.771   1.246   2.464  3.1251  3.9047 -0.1442
 2278SOL     OW 6968  -0.007   4.199   4.442  0.0236 -0.3643 -0.5679
 2278SOL    HW1 6969   0.025   4.287   4.462 -2.0782  0.2689  0.2471
 2278SOL    HW2 6970   0.068   4.155   4.402  0.8516  2.1359 -2.0276
 2279SOL     OW 6971   4.119   1.717   1.754 -0.9236 -0.1641 -0.6202
 2279SOL    HW1 6972   4.023   1.710   1.757 -0.8664 -0.7729 -0.1772
 2279SOL    HW2 6973   4.150   1.653   1.817 -0.2789  1.5186  0.8768
 2280SOL     OW 6974   5.026   3.249   3.191  0.4484  0.0320  0.6286
 2280SOL    HW1 6975   5.106   3.205   3.164 -0.1307 -1.0669  0.6425
 2280SOL    HW2 6976   4.963   3.231   3.121  0.4147  1.5425  0.2303
 2281SOL     OW 6977   1.505   0.816   4.358  0.0002 -0.0699  0.8708
 2281SOL    HW1 6978   1.499   0.869   4.437  2.2225  1.7999 -0.0989
 2281SOL    HW2 6979   1.465   0.871   4.290 -0.2416 -0.8862  0.3339
 2282SOL     OW 6980   2.084   4.458   0.923 -0.0788 -0.4991 -0.2891
 2282SOL    HW1 6981   2.141   4.460   1.000  0.7210  1.3679 -0.8781
 2282SOL    HW2 6982   2.143   4.448   0.849 -0.1847  3.1192 -1.0686
 2283SOL     OW 6983   0.941   0.494   3.138  0.1805  0.2582 -0.5283
 2283SOL    HW1 6984   0.854   0.494   3.178  0.9331 -2.3035  1.3532
 2283SOL    HW2 6985   0.924   0.474   3.046 -1.1770 -2.5961  0.2359
 2284SOL     OW 6986   3.259   2.346   3.214 -0.2324 -0.6201 -0.1419
 2284SOL    HW1 6987   3.260   2.258   3.252 -0.9440  0.1725  1.8409
 2284SOL    HW2 6988   3.170   2.356   3.181 -0.3035 -0.4598  0.0987
 2285SOL     OW 6989   3.455   4.244   0.140  0.0299 -0.1212 -0.4734
 2285SOL    HW1 6990   3.409   4.196   0.072  0.4729  0.2973 -1.0784
 2285SOL    HW2 6991   3.399   4.320   0.158  0.2311  0.1242 -0.8576
 2286SOL     OW 6992   3.431   2.356   3.457  0.3093  0.6776  0.0457
 2286SOL    HW1 6993   3.519   2.373   3.423  0.0279  1.7588 -0.1600
 2286SOL    HW2 6994   3.375   2.349   3.380  0.5252 -2.1714  0.0391
 2287SOL     OW 6995   2.837   2.184   2.557 -0.5641 -0.0980 -0.3431
 2287SOL    HW1 6996   2.816   2.173   2.650  0.2245  1.1159  0.0134
 2287SOL    HW2 6997   2.865   2.098   2.527 -0.0571 -0.3324  0.7675
 2288SOL     OW 6998   2.768   2.725   1.137 -0.7768 -0.0996 -0.1190
 2288SOL    HW1 6999   2.680   2.721   1.099 -0.3402  1.4630 -1.4101
 2288SOL    HW2 7000   2.757   2.776   1.217 -1.1677 -0.6336  0.1765
 2289SOL     OW 7001   4.183   1.915   2.776 -0.7780 -0.4205 -0.1521
 2289SOL    HW1 7002   4.210   1.996   2.731  1.4772 -0.7969  0.4127
 2289SOL    HW2 7003   4.229   1.846   2.729 -0.2446 -1.0553  1.2873
 2290SOL     OW 7004   4.494   4.241   3.864  0.4948 -0.0082  0.1501
 2290SOL    HW1 7005   4.455   4.196   3.939  0.7642 -0.2092  0.1722
 2290SOL    HW2 7006   4.566   4.184   3.837  1.5118  0.8895  0.8257
 2291SOL     OW 7007   0.539   2.823   3.582  0.3698  0.1571 -0.2317
 2291SOL    HW1 7008   0.569   2.842   3.492  1.6266 -0.4767  0.0240
 2291SOL    HW2 7009   0.616   2.784   3.624 -1.1407 -2.5466  0.1904
 2292SOL     OW 7010   3.441   3.860   3.620 -0.2959  0.1103 -0.4486
 2292SOL    HW1 7011   3.423   3.766   3.630  0.9091 -0.1702 -0.7891
 2292SOL    HW2 7012   3.373   3.891   3.559 -0.3804 -0.6522 -0.7567
 2293SOL     OW 7013   1.978   2.642   2.756  0.6175 -0.5566  0.1294
 2293SOL    HW1 7014   2.015   2.727   2.783 -1.3706  0.0597  1.1664
 2293SOL    HW2 7015   1.884   2.659   2.750  0.3245 -2.3913 -0.9586
 2294SOL     OW 7016   3.739   0.230   0.038 -0.3441 -0.1451  0.5820
 2294SOL    HW1 7017   3.778   0.142   0.043 -1.4767 -0.7485 -0.6208
 2294SOL    HW2 7018   3.796   0.278  -0.022 -1.7748 -1.2463 -1.7510
 2295SOL     OW 7019   1.897   0.046   4.601 -0.3694 -0.0626  0.0126
 2295SOL    HW1 7020   1.967   0.007   4.548 -1.5809 -0.0445 -1.6583
 2295SOL    HW2 7021   1.924   0.029   4.691  2.6172  1.3490 -0.4715
 2296SOL     OW 7022   1.175   1.440   2.944 -0.0206 -0.4893 -0.3027
 2296SOL    HW1 7023   1.265   1.409   2.950  0.3988  0.0314 -2.8739
 2296SOL    HW2 7024   1.128   1.390   3.011  2.1331 -0.8166  1.0603
 2297SOL     OW 7025   1.145   4.155   3.430  0.5442 -0.3657 -0.2985
 2297SOL    HW1 7026   1.158   4.102   3.509  1.0842 -0.5154 -0.4821
 2297SOL    HW2 7027   1.230   4.198   3.417  0.6632 -0.8547 -1.1763
 2298SOL     OW 7028   3.248   2.105   3.348  0.0495 -0.3404 -0.2325
 2298SOL    HW1 7029   3.205   2.114   3.432 -0.6301  0.5313 -0.6608
 2298SOL    HW2 7030   3.282   2.015   3.348  0.8829 -0.0542  1.3323
 2299SOL     OW 7031   1.630   3.904   3.254  0.0922 -0.7151 -0.3766
 2299SOL    HW1 7032   1.690   3.948   3.314 -0.6830 -0.1088 -0.0354
 2299SOL    HW2 7033   1.543   3.916   3.293 -0.4582 -0.0886 -1.7262
 2300SOL     OW 7034   4.496   4.820   2.111  0.8375  0.0489 -0.9928
 2300SOL    HW1 7035   4.423   4.881   2.120  1.9252  1.5981 -2.1165
 2300SOL    HW2 7036   4.548   4.832   2.191  1.0387  0.6028 -1.2030
 2301SOL     OW 7037   1.558   0.303   1.083  0.2622 -0.3674 -0.1271
 2301SOL    HW1 7038   1.648   0.281   1.058 -0.6731 -4.4805 -0.6479
 2301SOL    HW2 7039   1.567   0.351   1.165  2.9472 -0.6823 -0.1329
 2302SOL     OW 7040   4.354   2.101   2.646  0.0114 -0.0864  0.0189
 2302SOL    HW1 7041   4.399   2.172   2.600  0.3934  0.8034  1.6608
 2302SOL    HW2 7042   4.408   2.086   2.724 -1.0617 -0.9206  0.6176
 2303SOL     OW 7043   0.806   3.211   1.258  0.0864 -0.2871 -0.1685
 2303SOL    HW1 7044   0.841   3.265   1.187 -0.7563  1.5100  0.7216
 2303SOL    HW2 7045   0.878   3.205   1.321 -0.1057  0.6022  0.1477
 2304SOL     OW 7046   0.768   1.881   3.310 -0.1695  0.0631 -0.3848
 2304SOL    HW1 7047   0.780   1.815   3.242  0.6964 -0.3071  0.1138
 2304SOL    HW2 7048   0.852   1.925   3.316 -0.6305  0.9778 -0.4540
 2305SOL     OW 7049   3.118   4.427   3.060  0.0065  0.1602  0.4780
 2305SOL    HW1 7050   3.108   4.411   3.154  0.3305  2.7999  1.0312
 2305SOL    HW2 7051   3.200   4.475   3.053  0.5767 -0.9927 -1.3319
 2306SOL     OW 7052   0.129   3.860   3.597  0.1333 -0.2896 -0.2346
 2306SOL    HW1 7053   0.157   3.902   3.679 -0.1419  0.3396 -0.4576
 2306SOL    HW2 7054   0.115   3.933   3.537  1.0990 -0.7820 -1.0887
 2307SOL     OW 7055   2.442  -0.002   3.099  0.1748  0.0712 -0.5421
 2307SOL    HW1 7056   2.478  -0.030   3.183 -1.8537  1.1620  0.7622
 2307SOL    HW2 7057   2.500   0.069   3.071 -0.4462  1.2933  1.1257
 2308SOL     OW 7058   4.431   0.102   0.164 -0.0054 -0.3091 -0.2741
 2308SOL    HW1 7059   4.336   0.099   0.150 -0.1662 -3.7134  0.5102
 2308SOL    HW2 7060   4.466   0.134   0.081 -1.8295  2.3494 -0.1295
 2309SOL     OW 7061   0.788   4.298   1.119 -0.6274  0.2599 -0.0763
 2309SOL    HW1 7062   0.865   4.242   1.127 -0.4487  0.6471  0.9955
 2309SOL    HW2 7063   0.738   4.259   1.047 -0.1009 -0.7817  0.0981
 2310SOL     OW 7064   0.877   2.482   4.494  0.4296  0.3689  0.0738
 2310SOL    HW1 7065   0.905   2.496   4.403  1.1025 -1.0944  0.0276
 2310SOL    HW2 7066   0.867   2.387   4.502  0.3972  0.4728  1.5385
 2311SOL     OW 7067   0.436   2.101   3.212  0.7953  0.1371 -0.6264
 2311SOL    HW1 7068   0.451   2.049   3.133 -1.8458 -0.4432 -0.8492
 2311SOL    HW2 7069   0.374   2.169   3.185  1.0036  0.8535  0.6118
 2312SOL     OW 7070   2.619   4.201   3.635 -0.2797 -0.3107  0.0039
 2312SOL    HW1 7071   2.701   4.164   3.666  0.8987  0.8526 -1.5169
 2312SOL    HW2 7072   2.551   4.158   3.687  1.1247 -2.8626 -0.1395
 2313SOL     OW 7073   3.586   3.974   1.808  0.4599 -0.0376  0.1301
 2313SOL    HW1 7074   3.579   3.952   1.901  1.3160  1.3365  0.5588
 2313SOL    HW2 7075   3.497   4.000   1.784  0.2113 -0.4766  0.5354
 2314SOL     OW 7076   3.578   3.246   4.788  0.0039 -0.4223  0.6397
 2314SOL    HW1 7077   3.638   3.218   4.719 -0.1230  3.2159 -1.1744
 2314SOL    HW2 7078   3.493   3.254   4.745 -0.1135  1.7592  1.1919
 2315SOL     OW 7079   3.851   2.337   0.091 -0.0284 -0.1294  0.1309
 2315SOL    HW1 7080   3.944   2.341   0.069 -0.2647 -0.6125 -1.0406
 2315SOL    HW2 7081   3.849   2.331   0.187  1.1652 -0.8213  0.1283
 2316SOL     OW 7082   0.088   2.153   4.800 -0.1855  0.0755 -0.2945
 2316SOL    HW1 7083   0.076   2.244   4.770 -0.3627  0.5958  1.2841
 2316SOL    HW2 7084   0.086   2.102   4.719 -1.0450  1.3728 -1.1427
 2317SOL     OW 7085   0.746   0.976   4.678 -0.2076 -0.2801  0.2458
 2317SOL    HW1 7086   0.713   0.890   4.705  1.1181 -1.8170 -2.5741
 2317SOL    HW2 7087   0.779   0.962   4.590 -0.5496  3.3526 -0.5970
 2318SOL     OW 7088   2.647   0.623   4.635  0.2611  0.0070  0.0968
 2318SOL    HW1 7089   2.557   0.604   4.609  0.0856 -1.8701  1.8891
 2318SOL    HW2 7090   2.664   0.710   4.598 -1.7726 -0.1916 -1.4832
 2319SOL     OW 7091   4.401   4.412   4.629  0.5932  0.4490  0.3842
 2319SOL    HW1 7092   4.421   4.416   4.536  0.5734 -1.0702  0.2977
 2319SOL    HW2 7093   4.361   4.497   4.648  0.3669  0.6855 -1.0338
 2320SOL     OW 7094   3.971   3.685   4.909 -0.4093 -0.2312  0.6431
 2320SOL    HW1 7095   3.999   3.774   4.890  1.9690 -0.8792  0.8414
 2320SOL    HW2 7096   4.030   3.629   4.857  1.4122 -1.8131  4.0949
 2321SOL     OW 7097   4.172   1.999   1.716 -0.1412 -0.1607  0.0041
 2321SOL    HW1 7098   4.147   2.040   1.634  0.0832  0.8625  0.4244
 2321SOL    HW2 7099   4.162   1.905   1.701  1.3666 -0.1015 -1.6853
 2322SOL     OW 7100   3.625   3.519   0.733 -0.5357 -0.1140 -0.0788
 2322SOL    HW1 7101   3.718   3.504   0.750 -0.1557  1.2989 -0.8358
 2322SOL    HW2 7102   3.610   3.609   0.760 -1.2695  0.2597 -1.6720
 2323SOL     OW 7103   1.920   3.144   4.035 -0.0719  0.1512  0.0913
 2323SOL    HW1 7104   1.853   3.076   4.048  0.5484 -0.3944  0.5684
 2323SOL    HW2 7105   2.003   3.096   4.039  0.3193  0.5433 -2.2766
 2324SOL     OW 7106   4.509   3.368   3.822 -0.3533 -0.3729 -0.3131
 2324SOL    HW1 7107   4.535   3.430   3.889  1.0550 -2.1446  0.8893
 2324SOL    HW2 7108   4.554   3.397   3.743  0.4336  0.0381  0.2764
 2325SOL     OW 7109   0.827   1.561   2.654 -0.2520 -0.0061 -0.2101
 2325SOL    HW1 7110   0.918   1.557   2.682  0.0718 -0.4246 -1.2828
 2325SOL    HW2 7111   0.824   1.632   2.590 -0.6764 -0.0099 -0.1989
 2326SOL     OW 7112   3.147   1.512   2.906  0.2287 -0.4455  0.1593
 2326SOL    HW1 7113   3.240   1.494   2.919  0.0147 -0.9243  1.1460
 2326SOL    HW2 7114   3.107   1.426   2.899 -0.1080 -0.2374 -0.6018
 2327SOL     OW 7115   2.695   4.120   3.212  0.5576  0.1561  0.2883
 2327SOL    HW1 7116   2.639   4.191   3.243  1.3203  0.8792  0.0689
 2327SOL    HW2 7117   2.703   4.135   3.118  1.3198  0.2224  0.3573
 2328SOL     OW 7118   2.577   1.344   1.850 -0.1485  0.5138 -0.2233
 2328SOL    HW1 7119   2.597   1.435   1.826  0.9085 -0.3465 -3.0065
 2328SOL    HW2 7120   2.486   1.333   1.822 -0.2903  0.7346  0.1516
 2329SOL     OW 7121   1.649   1.663   1.827 -0.2636 -0.1259  0.3278
 2329SOL    HW1 7122   1.699   1.603   1.883  0.5730  1.8523  1.7979
 2329SOL    HW2 7123   1.715   1.709   1.776 -0.6544  1.1867  0.9425
 2330SOL     OW 7124   2.717   2.148   0.887  0.3528 -0.2869 -0.4119
 2330SOL    HW1 7125   2.805   2.163   0.922  0.0522  0.5532  0.0199
 2330SOL    HW2 7126   2.690   2.065   0.926  1.1694 -0.8419 -1.0021
 2331SOL     OW 7127   2.051   1.087   3.371 -0.2197  0.2246 -0.1487
 2331SOL    HW1 7128   2.052   0.992   3.374  2.4748  0.0113 -2.9723
 2331SOL    HW2 7129   2.053   1.109   3.278  1.5089  2.9834  0.4126
 2332SOL     OW 7130   3.789   3.767   3.342  0.2980 -0.0942 -0.1716
 2332SOL    HW1 7131   3.821   3.681   3.366  0.4586 -0.3821 -1.3783
 2332SOL    HW2 7132   3.699   3.752   3.314  0.6440 -0.0510 -1.3630
 2333SOL     OW 7133   1.719   3.671   0.629 -0.1867 -0.1828 -0.1856
 2333SOL    HW1 7134   1.666   3.598   0.660  0.9551 -1.2690 -0.7266
 2333SOL    HW2 7135   1.673   3.703   0.551 -0.6622 -0.3510  0.0222
 2334SOL     OW 7136   1.722   1.912   2.605 -0.3206  0.0330  0.0315
 2334SOL    HW1 7137   1.741   1.938   2.515  0.2629 -1.4025 -0.2848
 2334SOL    HW2 7138   1.678   1.988   2.643  0.9300  1.3000 -0.9444
 2335SOL     OW 7139   0.031   4.609   3.903  0.1498  0.0466 -0.2556
 2335SOL    HW1 7140   0.086   4.649   3.836  0.5105 -3.3137 -2.2292
 2335SOL    HW2 7141  -0.047   4.580   3.856  0.3052 -2.2403  0.7529
 2336SOL     OW 7142   5.030   1.552   0.826  0.3212  0.1812  0.1730
 2336SOL    HW1 7143   5.039   1.496   0.904  3.4500  1.5839  0.9786
 2336SOL    HW2 7144   4.940   1.584   0.830  0.0000 -0.7728  2.5291
 2337SOL     OW 7145   1.582   0.864   1.203  0.2943 -0.1893  0.4144
 2337SOL    HW1 7146   1.644   0.849   1.132  0.2343  1.3139  0.0224
 2337SOL    HW2 7147   1.601   0.952   1.235  0.1119 -0.7002  2.0735
 2338SOL     OW 7148   4.703   2.458   1.282  0.1237  0.1390 -0.1605
 2338SOL    HW1 7149   4.744   2.410   1.354  0.2348  1.4285  0.6611
 2338SOL    HW2 7150   4.666   2.536   1.322 -3.3493 -0.9971 -0.8164
 2339SOL     OW 7151   1.086   1.815   4.305  0.6220 -0.7061  0.5684
 2339SOL    HW1 7152   1.061   1.822   4.213  0.3734 -0.4255  0.6554
 2339SOL    HW2 7153   1.004   1.824   4.353  0.9504  0.9607  0.8801
 2340SOL     OW 7154   2.959   2.053   3.228  0.2199 -0.2850  0.5210
 2340SOL    HW1 7155   2.987   1.966   3.256  0.2498  0.3221  2.5899
 2340SOL    HW2 7156   2.960   2.105   3.309 -0.4971  1.4462 -0.5305
 2341SOL     OW 7157   1.034   4.760   0.280  0.3344  0.1742  0.0551
 2341SOL    HW1 7158   1.127   4.782   0.277  0.0012  1.7460  0.3626
 2341SOL    HW2 7159   0.998   4.816   0.350 -1.1882  1.0369 -1.3436
 2342SOL     OW 7160   2.334   0.866   2.272 -0.5514 -0.5810  0.3748
 2342SOL    HW1 7161   2.382   0.797   2.317 -0.0822 -1.3863 -1.2683
 2342SOL    HW2 7162   2.305   0.826   2.190  0.2618  1.3137 -0.9248
 2343SOL     OW 7163   4.562   3.675   3.738 -0.4050 -0.4128 -0.3506
 2343SOL    HW1 7164   4.531   3.733   3.808 -1.1446 -0.9202 -0.2450
 2343SOL    HW2 7165   4.658   3.682   3.741 -0.4503 -0.0550  0.3898
 2344SOL     OW 7166   0.644   4.561   3.100 -0.1040  0.8097 -0.8237
 2344SOL    HW1 7167   0.657   4.648   3.063  0.0108  0.9071 -0.5584
 2344SOL    HW2 7168   0.637   4.503   3.024 -0.5807  1.1041 -1.0104
 2345SOL     OW 7169   4.616   2.258   3.062  0.1353  0.4921 -0.5815
 2345SOL    HW1 7170   4.609   2.176   3.112 -0.9698  0.7187 -0.3403
 2345SOL    HW2 7171   4.542   2.311   3.092 -0.5089  0.6857 -2.3732
 2346SOL     OW 7172   0.777   4.756   4.156 -0.4038  0.1011 -0.0934
 2346SOL    HW1 7173   0.847   4.693   4.142 -1.1513 -1.3364  2.1678
 2346SOL    HW2 7174   0.821   4.835   4.186  0.3316 -0.4634  0.3501
 2347SOL     OW 7175   0.901   0.973   0.834 -0.6051 -0.1163  0.1109
 2347SOL    HW1 7176   0.989   0.957   0.867 -0.8602 -0.5775  0.5993
 2347SOL    HW2 7177   0.845   0.914   0.886 -1.2413  0.4178  0.0463
 2348SOL     OW 7178   1.260   2.990   1.854 -0.0211 -0.3039  0.1979
 2348SOL    HW1 7179   1.183   2.988   1.910 -1.3746  1.4194 -1.4794
 2348SOL    HW2 7180   1.272   3.082   1.832  0.2376 -0.8899 -2.5334
 2349SOL     OW 7181   4.013   1.432   0.804  0.3509 -0.2937 -0.0741
 2349SOL    HW1 7182   3.928   1.394   0.783  0.1413 -0.4651  1.0091
 2349SOL    HW2 7183   4.024   1.504   0.742 -0.0403 -1.0226 -0.9959
 2350SOL     OW 7184   3.181   1.452   3.599 -0.3031 -0.8961 -0.2407
 2350SOL    HW1 7185   3.275   1.471   3.603 -0.3379 -0.7610  3.5246
 2350SOL    HW2 7186   3.150   1.501   3.523  2.1523  1.9024  0.3763
 2351SOL     OW 7187   0.080   4.667   1.594  0.2210 -0.3111  0.1725
 2351SOL    HW1 7188   0.141   4.692   1.663  2.0393 -1.0136 -1.1061
 2351SOL    HW2 7189   0.113   4.710   1.516 -0.4463 -1.3902 -0.7290
 2352SOL     OW 7190   4.650   4.851   0.945 -0.0009  0.0103 -0.0157
 2352SOL    HW1 7191   4.681   4.896   0.866  1.6681  1.1365  1.1799
 2352SOL    HW2 7192   4.709   4.776   0.955 -0.5675 -0.4573 -0.1346
 2353SOL     OW 7193  -0.016   3.705   4.260  0.2277  0.3088 -0.1523
 2353SOL    HW1 7194  -0.047   3.724   4.349  0.2845 -0.6217  0.0798
 2353SOL    HW2 7195   0.076   3.680   4.272  0.5956  1.3871 -0.6295
 2354SOL     OW 7196   1.480   1.018   4.529 -0.1579 -0.6678 -0.2070
 2354SOL    HW1 7197   1.545   1.061   4.473 -0.0792 -1.7972 -1.0150
 2354SOL    HW2 7198   1.398   1.061   4.507  0.0695 -0.2819 -0.3141
 2355SOL     OW 7199   4.074   1.242   0.379 -0.1656  0.2518 -0.0228
 2355SOL    HW1 7200   4.162   1.226   0.411 -0.4321  0.1317  0.6728
 2355SOL    HW2 7201   4.022   1.170   0.415 -0.5094  0.1887 -0.6192
 2356SOL     OW 7202   1.468   1.869   2.081 -0.3744  0.3019 -0.0429
 2356SOL    HW1 7203   1.375   1.891   2.080 -0.5206 -0.0659  1.5212
 2356SOL    HW2 7204   1.470   1.776   2.105  0.3714 -0.1093 -1.5695
 2357SOL     OW 7205   0.935   0.727   4.986 -0.1516 -0.1101  0.5568
 2357SOL    HW1 7206   0.881   0.801   5.015 -0.7690  0.0950 -1.0237
 2357SOL    HW2 7207   1.018   0.768   4.958  0.2030 -0.2388  1.3852
 2358SOL     OW 7208   4.857   4.156   0.904  0.2408  0.4834  0.3016
 2358SOL    HW1 7209   4.903   4.092   0.959  0.9625 -0.3491 -1.2154
 2358SOL    HW2 7210   4.805   4.103   0.843  0.6285  1.3317 -0.7917
 2359SOL     OW 7211   1.079   2.698   1.807  0.4194  0.7108 -0.3704
 2359SOL    HW1 7212   1.102   2.727   1.896  1.9187 -0.5069 -0.3286
 2359SOL    HW2 7213   1.092   2.603   1.809  0.0577  0.6207 -1.7806
 2360SOL     OW 7214   2.286   3.468   4.246 -0.1400 -0.6385  0.3382
 2360SOL    HW1 7215   2.289   3.500   4.336  0.5674 -3.4004  1.3735
 2360SOL    HW2 7216   2.354   3.517   4.201 -1.5348  1.9293  0.8083
 2361SOL     OW 7217   1.829   2.265   4.548 -0.4153 -0.1878  0.2248
 2361SOL    HW1 7218   1.896   2.333   4.538 -1.8028  1.3017  0.5983
 2361SOL    HW2 7219   1.801   2.246   4.459 -0.5500  0.2963  0.1599
 2362SOL     OW 7220   4.861   3.809   1.607  0.3996  0.4057 -0.1402
 2362SOL    HW1 7221   4.860   3.737   1.544  0.6165 -0.7397  1.1241
 2362SOL    HW2 7222   4.771   3.841   1.608 -0.3018 -1.4282  0.9877
 2363SOL     OW 7223   0.880   2.670   4.176 -0.7658 -0.1399  0.2706
 2363SOL    HW1 7224   0.847   2.728   4.107 -1.5340  0.7578  1.3452
 2363SOL    HW2 7225   0.801   2.631   4.214 -0.2720 -1.5892 -0.1582
 2364SOL     OW 7226   4.048   2.870   3.470 -0.1998  0.4714  0.3978
 2364SOL    HW1 7227   3.966   2.903   3.506 -0.5133  1.0721 -0.8348
 2364SOL    HW2 7228   4.024   2.826   3.389  0.7535  1.1042 -0.2484
 2365SOL     OW 7229   1.272   4.324   1.159 -0.1021  0.0422 -0.1153
 2365SOL    HW1 7230   1.244   4.320   1.067 -0.3426  0.1060 -0.0466
 2365SOL    HW2 7231   1.202   4.279   1.207  0.3757 -0.6404 -0.0416
 2366SOL     OW 7232   3.060   0.806   1.923  0.2760  0.0612 -0.2326
 2366SOL    HW1 7233   3.133   0.846   1.876  1.0454 -1.9320 -0.8378
 2366SOL    HW2 7234   2.981   0.841   1.881  0.8820  1.2454 -0.4179
 2367SOL     OW 7235   0.969   1.853   1.937 -0.3053 -0.4153  0.3766
 2367SOL    HW1 7236   0.907   1.912   1.894 -0.7127  1.2282  2.9486
 2367SOL    HW2 7237   0.916   1.778   1.964 -0.5022 -0.4556 -0.1099
 2368SOL     OW 7238   0.673   2.770   0.685 -0.4905 -1.1092 -0.2745
 2368SOL    HW1 7239   0.595   2.716   0.696 -1.2098 -0.1580 -0.5190
 2368SOL    HW2 7240   0.721   2.761   0.767 -1.1355 -1.2820  0.0871
 2369SOL     OW 7241   1.411   2.065   3.970  0.3314 -0.0197 -0.0270
 2369SOL    HW1 7242   1.444   2.053   4.059 -0.1001 -2.7554 -0.1467
 2369SOL    HW2 7243   1.489   2.085   3.918  0.8038  0.1177  0.7235
 2370SOL     OW 7244   2.879   4.109   3.672  0.2910  0.5358  0.0017
 2370SOL    HW1 7245   2.935   4.185   3.657  1.1117 -0.0606 -0.0734
 2370SOL    HW2 7246   2.928   4.036   3.635 -0.7540  0.0523 -0.4742
 2371SOL     OW 7247   3.977   4.695   2.189 -0.2171 -0.6397  0.1804
 2371SOL    HW1 7248   4.044   4.741   2.138 -1.7782  2.0032  0.3073
 2371SOL    HW2 7249   4.023   4.665   2.267  0.8857  0.9759  0.2018
 2372SOL     OW 7250   2.951   3.683   4.858 -0.2214 -0.4262  0.2050
 2372SOL    HW1 7251   2.884   3.635   4.810  1.6145 -2.5872 -0.3566
 2372SOL    HW2 7252   3.004   3.615   4.899  3.3182  0.9573 -1.6663
 2373SOL     OW 7253   0.249   1.175   4.924 -0.1907 -0.1236  0.7214
 2373SOL    HW1 7254   0.269   1.124   5.002  2.1254 -0.5093 -0.0309
 2373SOL    HW2 7255   0.217   1.259   4.957  0.0173 -0.5450  2.0466
 2374SOL     OW 7256   4.004  -0.006   4.804  0.6594 -0.0234 -0.1104
 2374SOL    HW1 7257   3.925   0.012   4.753 -0.3322  2.3365  2.0353
 2374SOL    HW2 7258   4.066   0.063   4.779  1.4226 -0.8287 -0.5047
 2375SOL     OW 7259   4.426   3.301   3.377  0.0306 -0.2481 -0.2467
 2375SOL    HW1 7260   4.482   3.288   3.454  1.9672 -2.6309 -1.8968
 2375SOL    HW2 7261   4.354   3.240   3.389  0.4241 -0.7445 -0.3626
 2376SOL     OW 7262   4.759   2.981   0.422  0.4239  0.4823 -0.2503
 2376SOL    HW1 7263   4.684   2.969   0.481 -0.6306 -0.7600 -1.7697
 2376SOL    HW2 7264   4.732   3.050   0.362 -0.3433 -1.1901 -1.9498
 2377SOL     OW 7265   4.147   0.480   4.945  0.4458 -0.2464 -0.6218
 2377SOL    HW1 7266   4.242   0.474   4.937  0.8104 -1.7163  2.9761
 2377SOL    HW2 7267   4.124   0.414   5.011 -2.8750  1.2298 -0.0872
 2378SOL     OW 7268   4.036   4.080   1.742 -0.1985 -0.3035  0.1839
 2378SOL    HW1 7269   4.082   4.090   1.659 -1.4709 -2.4829 -0.8572
 2378SOL    HW2 7270   4.009   4.169   1.765 -0.8961  0.2382 -2.4074
 2379SOL     OW 7271   1.271   0.337   1.397 -0.1911 -0.3156  0.0297
 2379SOL    HW1 7272   1.267   0.404   1.329  0.7053 -0.6680 -0.3844
 2379SOL    HW2 7273   1.280   0.255   1.350 -1.1322 -0.7402  0.5404
 2380SOL     OW 7274  -0.024   0.761   4.155 -0.1387  0.2581 -0.2202
 2380SOL    HW1 7275   0.013   0.849   4.149 -0.9484  0.5473 -1.2936
 2380SOL    HW2 7276   0.015   0.724   4.234 -0.3345  1.8358  0.6624
 2381SOL     OW 7277   0.100   0.059   1.083  1.1429 -0.1967  0.1141
 2381SOL    HW1 7278   0.167   0.028   1.143  1.7550  1.1343  0.1565
 2381SOL    HW2 7279   0.148   0.107   1.015  0.3564 -0.5388 -0.7001
 2382SOL     OW 7280   2.268   4.429   0.727  0.1527 -0.6092 -0.3440
 2382SOL    HW1 7281   2.363   4.441   0.721  0.1188 -0.3967 -0.4794
 2382SOL    HW2 7282   2.237   4.448   0.638 -0.0749 -0.1367 -0.1675
 2383SOL     OW 7283   4.008   1.224   1.980  0.4564 -0.2423  0.4590
 2383SOL    HW1 7284   4.081   1.182   1.934  0.8482 -0.9492  1.6793
 2383SOL    HW2 7285   3.934   1.218   1.918  0.8154 -1.6867  0.1262
 2384SOL     OW 7286   3.203   4.811   1.849 -0.3142 -0.6530 -0.4067
 2384SOL    HW1 7287   3.273   4.870   1.822 -0.4476  1.1232  2.6650
 2384SOL    HW2 7288   3.248   4.739   1.894 -0.2876  1.3233  3.0865
 2385SOL     OW 7289   2.037   3.401   3.780  0.4715 -0.0138  0.0287
 2385SOL    HW1 7290   2.124   3.370   3.806  0.5734  0.9251  0.9135
 2385SOL    HW2 7291   2.043   3.497   3.789 -0.4887  0.0958 -0.4240
 2386SOL     OW 7292   0.151   1.125   3.152  0.2891 -0.0285 -0.1572
 2386SOL    HW1 7293   0.133   1.190   3.084  1.6632  0.7042  0.1438
 2386SOL    HW2 7294   0.217   1.068   3.114  0.7928  0.1626  0.4107
 2387SOL     OW 7295   4.809   5.016   3.583  0.4328  0.9267 -0.3458
 2387SOL    HW1 7296   4.889   4.974   3.554  0.9629  1.0317  0.8779
 2387SOL    HW2 7297   4.817   5.020   3.679 -3.1129 -3.4716  0.4822
 2388SOL     OW 7298   2.388   4.526   1.398 -0.2148  0.6436 -0.1766
 2388SOL    HW1 7299   2.376   4.612   1.356 -0.5729  0.2349 -0.9337
 2388SOL    HW2 7300   2.395   4.546   1.491 -0.5857  1.4747 -0.3135
 2389SOL     OW 7301   0.499   4.604   0.017 -0.4947  0.0142 -0.3391
 2389SOL    HW1 7302   0.515   4.665  -0.055  1.1365 -0.2429 -0.2208
 2389SOL    HW2 7303   0.553   4.637   0.089 -0.7592 -0.7205  0.2039
 2390SOL     OW 7304   0.051   4.456   2.615 -0.3362  0.2014  0.6623
 2390SOL    HW1 7305   0.014   4.370   2.598  0.2830 -0.1172  0.8711
 2390SOL    HW2 7306   0.078   4.453   2.706 -0.5206  0.7022  0.7390
 2391SOL     OW 7307   2.978   0.810   4.721 -0.0390 -0.7357 -0.3492
 2391SOL    HW1 7308   2.939   0.897   4.729  0.5749 -0.5358  0.6770
 2391SOL    HW2 7309   3.072   0.826   4.710 -0.2127 -1.2026 -3.0183
 2392SOL     OW 7310   3.584   2.679   1.338 -0.4485 -0.7601 -0.1777
 2392SOL    HW1 7311   3.505   2.673   1.283 -2.5905 -0.1584  2.6048
 2392SOL    HW2 7312   3.572   2.613   1.406  1.1206 -0.1862  0.7230
 2393SOL     OW 7313   0.291   1.371   0.695  0.4045  0.4715  0.5990
 2393SOL    HW1 7314   0.253   1.325   0.770  1.2466  0.6376  1.1437
 2393SOL    HW2 7315   0.358   1.311   0.662 -0.3259  0.1739 -0.3599
 2394SOL     OW 7316   1.086   0.788   2.691  0.1644  0.3678 -0.1846
 2394SOL    HW1 7317   1.049   0.807   2.777  1.3548  0.7208  0.2767
 2394SOL    HW2 7318   1.157   0.726   2.709 -0.7331 -0.9802 -1.1434
 2395SOL     OW 7319   2.916   4.382   4.528 -0.1866 -0.0954  0.0317
 2395SOL    HW1 7320   2.945   4.414   4.613  0.0819  0.8731 -0.4058
 2395SOL    HW2 7321   2.995   4.384   4.473 -0.2284 -1.2515 -0.0981
 2396SOL     OW 7322   3.511   4.977   1.308 -0.6650  0.7429 -0.1098
 2396SOL    HW1 7323   3.598   5.012   1.288 -0.8463  0.4404 -1.5139
 2396SOL    HW2 7324   3.451   5.032   1.258 -1.4850  2.0098  2.1126
 2397SOL     OW 7325   3.512   1.680   3.540  0.2531  0.4863 -0.2407
 2397SOL    HW1 7326   3.590   1.719   3.581  1.2714 -1.7301  0.1309
 2397SOL    HW2 7327   3.503   1.595   3.584 -0.2497 -0.8274 -2.6901
 2398SOL     OW 7328   3.321   1.904   2.196 -0.5355  0.1076  0.2311
 2398SOL    HW1 7329   3.313   1.861   2.281  1.7369 -0.7631  0.0713
 2398SOL    HW2 7330   3.288   1.839   2.133  1.2979 -0.8316  0.1561
 2399SOL     OW 7331   2.104   2.140   0.802  0.8245 -0.1615 -0.0942
 2399SOL    HW1 7332   2.151   2.077   0.748 -1.8783 -1.2480 -1.3612
 2399SOL    HW2 7333   2.133   2.122   0.892  1.8728 -1.5541 -0.6845
 2400SOL     OW 7334   1.828   2.396   2.197 -0.3261  0.1736 -0.2733
 2400SOL    HW1 7335   1.852   2.380   2.106 -0.5638 -0.1684 -0.2758
 2400SOL    HW2 7336   1.822   2.309   2.237 -2.2725  0.1860 -0.4534
 2401SOL     OW 7337   4.991   1.006   3.293  0.3907 -0.1038  0.1007
 2401SOL    HW1 7338   5.050   1.059   3.240 -1.8957  1.1066 -1.3901
 2401SOL    HW2 7339   4.965   1.064   3.365  1.7928 -1.0061  1.3888
 2402SOL     OW 7340   3.476   0.073   2.090  0.2374 -0.3520 -0.6319
 2402SOL    HW1 7341   3.411   0.013   2.054 -1.5859 -0.4532  2.4737
 2402SOL    HW2 7342   3.551   0.017   2.112 -0.1403 -0.9038 -0.7377
 2403SOL     OW 7343   4.784   1.191   5.009  0.2832  0.3021 -0.5281
 2403SOL    HW1 7344   4.787   1.125   4.941  0.7898  0.7186 -0.9152
 2403SOL    HW2 7345   4.864   1.177   5.060 -0.2064 -0.1615  0.1376
 2404SOL     OW 7346   3.369   0.070   4.698  0.4856 -0.3106 -0.1547
 2404SOL    HW1 7347   3.289   0.081   4.750  0.6908 -0.5859  0.2271
 2404SOL    HW2 7348   3.343   0.014   4.625  0.6900 -1.7725  0.8516
 2405SOL     OW 7349   0.906   0.647   1.264 -0.2023 -0.5696 -0.5426
 2405SOL    HW1 7350   0.957   0.567   1.252 -1.7755 -2.3091  2.8745
 2405SOL    HW2 7351   0.964   0.718   1.236  2.4151 -2.6967 -0.8326
 2406SOL     OW 7352   3.517   4.662   0.498 -0.1908 -0.1378  0.7567
 2406SOL    HW1 7353   3.424   4.684   0.497 -0.1782  0.0191  1.8447
 2406SOL    HW2 7354   3.520   4.567   0.485 -0.5344 -0.2195  1.2483
 2407SOL     OW 7355   1.739   4.882   1.784  0.2936  0.5804  0.8233
 2407SOL    HW1 7356   1.651   4.850   1.802  0.9940 -0.2682  2.9739
 2407SOL    HW2 7357   1.753   4.862   1.691 -1.7003  0.6331  0.4694
 2408SOL     OW 7358   4.154   1.553   2.023  0.2432  0.3039  0.2236
 2408SOL    HW1 7359   4.150   1.557   2.119 -0.8263  0.9840  0.1685
 2408SOL    HW2 7360   4.114   1.469   2.001  1.3709 -0.2917  0.4056
 2409SOL     OW 7361   4.185   2.776   1.082  0.2183 -0.7272  0.0281
 2409SOL    HW1 7362   4.251   2.845   1.085  0.9978 -1.3865 -1.3037
 2409SOL    HW2 7363   4.234   2.695   1.071 -0.6874 -1.5343  1.5916
 2410SOL     OW 7364   3.221   1.313   4.332 -0.3676  0.4275  0.3696
 2410SOL    HW1 7365   3.274   1.320   4.411  2.3131  1.7318 -1.3796
 2410SOL    HW2 7366   3.236   1.224   4.300 -1.3656 -0.0641  1.2373
 2411SOL     OW 7367   0.197   1.718   0.863 -0.0245  0.7060 -0.3942
 2411SOL    HW1 7368   0.130   1.652   0.850 -0.0346  0.7388 -0.5119
 2411SOL    HW2 7369   0.155   1.785   0.917  0.3016  0.1349  0.5897
 2412SOL     OW 7370   4.939   1.325   3.788  0.4189 -0.4943 -0.3226
 2412SOL    HW1 7371   4.910   1.409   3.751  1.1431 -0.2184 -0.2731
 2412SOL    HW2 7372   4.857   1.280   3.811 -0.1886 -1.3527 -3.6657
 2413SOL     OW 7373   4.199   1.892   0.468  0.5515 -0.2915 -0.0303
 2413SOL    HW1 7374   4.147   1.898   0.387  2.4445  1.8570 -1.2162
 2413SOL    HW2 7375   4.180   1.973   0.515  0.3027 -1.0339  1.1940
 2414SOL     OW 7376   1.227   3.827   1.903 -0.3868 -0.6655  0.0500
 2414SOL    HW1 7377   1.304   3.824   1.846  0.4032 -0.2887  1.0710
 2414SOL    HW2 7378   1.161   3.873   1.851  0.3458 -0.2505 -0.5340
 2415SOL     OW 7379   3.956   4.319   1.833  0.7343 -0.1276  0.4632
 2415SOL    HW1 7380   3.887   4.302   1.897  0.0535  2.8517  0.6912
 2415SOL    HW2 7381   3.989   4.406   1.856  0.5028  1.0750 -3.1383
 2416SOL     OW 7382   0.012   4.400   4.897 -0.1168 -0.2810  0.4597
 2416SOL    HW1 7383   0.053   4.332   4.843  0.5678  1.0250 -0.7494
 2416SOL    HW2 7384  -0.048   4.444   4.837 -3.0525 -1.8095  2.0460
 2417SOL     OW 7385   0.213   1.778   1.715 -0.0757  0.5811  0.2064
 2417SOL    HW1 7386   0.137   1.806   1.766  0.3034  1.9162  0.0582
 2417SOL    HW2 7387   0.286   1.830   1.748  0.3473  0.8489 -1.1037
 2418SOL     OW 7388   4.014   3.768   1.605 -0.6425  0.1096 -0.1005
 2418SOL    HW1 7389   3.993   3.684   1.565  1.8316 -0.4871 -0.3212
 2418SOL    HW2 7390   4.014   3.752   1.699 -1.6983  0.2950 -0.0534
 2419SOL     OW 7391   3.684   4.853   5.040 -0.0175  0.3671  0.0628
 2419SOL    HW1 7392   3.608   4.899   5.005 -0.1054  0.0195 -0.2139
 2419SOL    HW2 7393   3.653   4.764   5.056  0.2789  0.2722  0.1266
 2420SOL     OW 7394   4.511   0.526   0.160 -0.6090  0.0447 -0.4209
 2420SOL    HW1 7395   4.532   0.509   0.068  0.3750 -1.4557  0.0335
 2420SOL    HW2 7396   4.448   0.458   0.183  0.3280 -0.5795  0.4000
 2421SOL     OW 7397   1.064   1.054   4.808 -0.3805 -0.5953  0.0701
 2421SOL    HW1 7398   0.971   1.042   4.788 -0.5988  0.6365  0.2794
 2421SOL    HW2 7399   1.104   0.970   4.786 -1.5632 -1.1902  0.0995
 2422SOL     OW 7400   2.526   4.408   1.089  0.2184  0.2131  0.4935
 2422SOL    HW1 7401   2.585   4.374   1.156 -1.7644 -2.6774  0.9558
 2422SOL    HW2 7402   2.479   4.331   1.057 -1.1817  1.9462 -1.9735
 2423SOL     OW 7403   5.042   4.308   1.523 -0.6580  0.1489  0.1890
 2423SOL    HW1 7404   4.994   4.287   1.443 -1.5172  0.2411  0.6695
 2423SOL    HW2 7405   4.999   4.387   1.557 -0.0764  0.3131  0.5636
 2424SOL     OW 7406   1.378   4.228   1.658  0.2581  0.2117  0.1566
 2424SOL    HW1 7407   1.413   4.251   1.744  0.3218  0.9816 -0.0691
 2424SOL    HW2 7408   1.303   4.171   1.677  1.4123 -1.2163  0.6482
 2425SOL     OW 7409   4.367   4.938   3.304  0.4684  0.4995  0.6189
 2425SOL    HW1 7410   4.429   4.917   3.234  0.3185  0.9144  0.3547
 2425SOL    HW2 7411   4.419   4.935   3.384  0.4814 -0.7115  0.5819
 2426SOL     OW 7412   3.058   4.447   2.623 -0.3719 -0.2841  0.1119
 2426SOL    HW1 7413   3.106   4.379   2.669 -0.9900  0.4414  1.9293
 2426SOL    HW2 7414   3.125   4.510   2.596 -0.0123 -0.6636  0.1149
 2427SOL     OW 7415   3.848   4.894   0.723 -0.0854 -0.0107  0.2306
 2427SOL    HW1 7416   3.809   4.811   0.695 -0.5226 -0.2101  1.3579
 2427SOL    HW2 7417   3.896   4.926   0.646 -0.0410 -1.2310 -0.2710
 2428SOL     OW 7418   0.464   1.127   0.540  0.4487 -0.4318  0.3121
 2428SOL    HW1 7419   0.431   1.054   0.489  2.0134 -1.4616  0.7186
 2428SOL    HW2 7420   0.433   1.111   0.629  0.4883 -0.3948  0.3329
 2429SOL     OW 7421   5.024   4.476   1.769 -0.4888 -0.3897 -0.3603
 2429SOL    HW1 7422   5.043   4.508   1.682 -2.0266 -0.6744 -0.8374
 2429SOL    HW2 7423   4.968   4.543   1.808 -0.4369 -0.6203  0.1222
 2430SOL     OW 7424   2.704   0.570   0.958 -0.4388  0.2066  0.2730
 2430SOL    HW1 7425   2.674   0.659   0.979 -1.1367  0.0128  0.1396
 2430SOL    HW2 7426   2.715   0.527   1.042 -2.0345 -0.1881  0.3080
 2431SOL     OW 7427   1.101   4.388   1.419  0.0987  0.4489  0.1606
 2431SOL    HW1 7428   1.040   4.375   1.491 -0.0867  0.0950 -0.0581
 2431SOL    HW2 7429   1.102   4.305   1.373 -1.7427  1.3913 -1.7600
 2432SOL     OW 7430   0.081   2.880   2.088  0.2884 -0.1431 -0.2310
 2432SOL    HW1 7431   0.004   2.927   2.057  1.4350  2.1002  0.0854
 2432SOL    HW2 7432   0.096   2.811   2.023 -2.0139 -0.7127 -0.2139
 2433SOL     OW 7433   2.491   0.169   0.268 -0.9283 -0.1349 -0.5915
 2433SOL    HW1 7434   2.412   0.116   0.258  0.5104 -2.4412 -0.3873
 2433SOL    HW2 7435   2.478   0.242   0.207 -1.6315 -2.4340 -3.4084
 2434SOL     OW 7436   2.332   0.237   2.558 -0.0841  0.8907  0.4296
 2434SOL    HW1 7437   2.243   0.205   2.545 -0.0433  1.2589 -0.8338
 2434SOL    HW2 7438   2.354   0.211   2.648 -1.3237  0.4819  0.6278
 2435SOL     OW 7439   3.849   0.272   3.883  0.0834 -0.4884  0.0735
 2435SOL    HW1 7440   3.912   0.342   3.901  0.7661 -1.7250  3.2240
 2435SOL    HW2 7441   3.763   0.312   3.896  0.4419 -0.0236  1.0726
 2436SOL     OW 7442   1.030   3.511   3.052 -0.1924  0.3957 -0.2791
 2436SOL    HW1 7443   0.945   3.551   3.034  0.4796  1.8352 -0.3903
 2436SOL    HW2 7444   1.069   3.500   2.965  0.5032  1.5473 -0.1352
 2437SOL     OW 7445   2.600   2.204   1.511 -0.2141 -0.2480  0.0752
 2437SOL    HW1 7446   2.646   2.195   1.428 -0.4050 -0.4034 -0.0154
 2437SOL    HW2 7447   2.520   2.153   1.500  0.3070 -1.2455  0.7698
 2438SOL     OW 7448   0.149   4.847   2.729 -0.3194  0.4104 -0.3335
 2438SOL    HW1 7449   0.092   4.807   2.662 -0.0429 -1.6745  0.5912
 2438SOL    HW2 7450   0.117   4.936   2.738 -2.4236 -0.2307 -0.9787
 2439SOL     OW 7451   3.531   1.039   2.955  0.1334 -0.3218  0.3545
 2439SOL    HW1 7452   3.487   1.023   3.039 -1.4024  0.2823 -0.3040
 2439SOL    HW2 7453   3.514   1.131   2.937 -0.4162 -0.6900 -1.0940
 2440SOL     OW 7454   2.939   2.550   3.420 -0.3059 -0.5571 -0.4491
 2440SOL    HW1 7455   2.954   2.563   3.514 -0.3191  1.0827 -0.6484
 2440SOL    HW2 7456   2.911   2.459   3.413 -0.9572 -0.5264  1.2186
 2441SOL     OW 7457   4.372   4.009   3.626 -0.3230 -0.0181  0.1548
 2441SOL    HW1 7458   4.303   4.001   3.691  0.6897 -0.0507  1.2520
 2441SOL    HW2 7459   4.411   4.095   3.642  0.4273 -0.3361  0.0910
 2442SOL     OW 7460   1.621   4.703   2.732  0.2796 -0.3296 -0.0132
 2442SOL    HW1 7461   1.664   4.662   2.657  0.5965 -0.6754  0.3525
 2442SOL    HW2 7462   1.678   4.683   2.806 -0.3213 -0.4839  0.4189
 2443SOL     OW 7463   0.045   0.025   2.292 -0.1891  0.2684  0.2783
 2443SOL    HW1 7464   0.043   0.108   2.244  1.6368  0.2263  0.0851
 2443SOL    HW2 7465  -0.038  -0.018   2.268 -0.6671  1.5489 -0.4672
 2444SOL     OW 7466   3.394   0.716   3.379 -0.5196  0.5132 -0.6221
 2444SOL    HW1 7467   3.397   0.794   3.434  2.3737  2.1754 -2.8651
 2444SOL    HW2 7468   3.475   0.669   3.399 -0.3351  0.1808 -2.0296
 2445SOL     OW 7469   3.110   0.641   4.955 -0.1317  0.4736  0.3001
 2445SOL    HW1 7470   3.161   0.601   5.026  2.6982  2.9186 -0.2089
 2445SOL    HW2 7471   3.020   0.639   4.988  0.6319 -1.2192  2.5970
 2446SOL     OW 7472   3.203   4.826   3.077  0.7556 -0.1138  0.9639
 2446SOL    HW1 7473   3.146   4.752   3.098  2.4109 -0.9265  2.8557
 2446SOL    HW2 7474   3.227   4.813   2.986 -0.8008 -0.6056  0.5901
 2447SOL     OW 7475   1.723   3.342   2.142  0.0677 -0.3100 -0.1641
 2447SOL    HW1 7476   1.741   3.272   2.205 -2.8495 -1.1639 -0.1229
 2447SOL    HW2 7477   1.709   3.420   2.196  0.4074 -0.3788  0.0219
 2448SOL     OW 7478   3.890   2.371   0.343  0.8535  0.8201  0.1498
 2448SOL    HW1 7479   3.823   2.405   0.401  2.6687  1.9663  1.7067
 2448SOL    HW2 7480   3.969   2.420   0.366  3.0446 -2.6488  0.7025
 2449SOL     OW 7481   4.207   3.674   1.330 -0.1334 -0.5207 -0.3842
 2449SOL    HW1 7482   4.193   3.688   1.236 -0.9524  1.1698 -0.0479
 2449SOL    HW2 7483   4.172   3.587   1.347  0.6331 -1.1198 -1.7634
 2450SOL     OW 7484   4.436   0.189   2.644  1.0789  0.4745 -0.4834
 2450SOL    HW1 7485   4.436   0.278   2.679  3.4207 -0.0262  1.0324
 2450SOL    HW2 7486   4.433   0.200   2.549 -1.0500  2.0463 -0.2984
 2451SOL     OW 7487   0.599   3.455   4.683  0.4563 -0.2194  0.2065
 2451SOL    HW1 7488   0.672   3.404   4.649  0.6122  0.0932  0.0763
 2451SOL    HW2 7489   0.556   3.491   4.606 -0.2595 -0.9710  0.2351
 2452SOL     OW 7490   0.650   4.051   0.974  0.2578  0.1213  0.0398
 2452SOL    HW1 7491   0.602   4.083   0.898 -3.4666 -1.0375  1.6740
 2452SOL    HW2 7492   0.683   3.965   0.948 -0.5600 -0.0542 -0.4445
 2453SOL     OW 7493   2.776   2.650   2.682  0.3741 -0.4855  0.0101
 2453SOL    HW1 7494   2.793   2.587   2.612 -0.2072 -0.3466 -0.2590
 2453SOL    HW2 7495   2.718   2.715   2.642 -1.8113 -1.5791  1.2172
 2454SOL     OW 7496   1.930   0.049   1.093  0.6140 -0.1847 -0.2914
 2454SOL    HW1 7497   1.857   0.032   1.034  0.3422  2.5904 -0.9375
 2454SOL    HW2 7498   2.007   0.014   1.047 -0.0665 -1.6154 -0.3833
 2455SOL     OW 7499   1.423   0.738   0.980  0.2327 -0.3752  0.0518
 2455SOL    HW1 7500   1.473   0.762   1.058  0.0726 -0.7570  0.2775
 2455SOL    HW2 7501   1.473   0.773   0.907  1.6337 -2.0487  0.1581
 2456SOL     OW 7502   2.049   1.620   1.550 -0.3917  0.0306  0.3086
 2456SOL    HW1 7503   2.118   1.686   1.543 -0.5272  0.3104  1.4023
 2456SOL    HW2 7504   2.091   1.546   1.592 -0.6678  0.0666  0.6506
 2457SOL     OW 7505   0.518   4.168   3.940  0.1389  0.1834 -0.3207
 2457SOL    HW1 7506   0.503   4.244   3.995  0.3479 -0.3975  0.5608
 2457SOL    HW2 7507   0.546   4.204   3.856 -0.1029  1.0812 -0.0253
 2458SOL     OW 7508   3.269   0.281   1.588 -0.0076  0.3340  0.5870
 2458SOL    HW1 7509   3.304   0.369   1.601  0.3000  0.5590 -1.3637
 2458SOL    HW2 7510   3.178   0.286   1.614 -0.1088  1.3720  0.0645
 2459SOL     OW 7511   2.958   2.186   0.999  0.3837  0.0731  0.6357
 2459SOL    HW1 7512   2.993   2.117   1.056  0.3853 -1.4330 -1.0687
 2459SOL    HW2 7513   3.035   2.230   0.964  0.3962  0.6264  1.3476
 2460SOL     OW 7514   2.142   1.609   1.107 -0.4262 -0.2433  0.2289
 2460SOL    HW1 7515   2.203   1.637   1.176  0.6778 -0.1322 -0.7638
 2460SOL    HW2 7516   2.123   1.689   1.058 -0.3923 -0.5065 -0.2169
 2461SOL     OW 7517   2.400   2.352   2.002 -0.1695 -0.3617 -0.2294
 2461SOL    HW1 7518   2.434   2.442   2.001 -0.1518 -0.3421  0.9621
 2461SOL    HW2 7519   2.477   2.297   1.986  0.0756 -0.2188  0.4200
 2462SOL     OW 7520   2.158   0.402   1.844 -0.2894 -0.5211  0.2822
 2462SOL    HW1 7521   2.156   0.320   1.893  0.5302 -2.1052 -2.1653
 2462SOL    HW2 7522   2.067   0.418   1.820 -0.1537 -2.5488 -1.9310
 2463SOL     OW 7523   0.228   3.627   1.379  0.2442  0.0412  0.1071
 2463SOL    HW1 7524   0.185   3.547   1.349  0.9833  0.3850 -1.9938
 2463SOL    HW2 7525   0.158   3.692   1.384  0.0393 -0.1338 -0.4732
 2464SOL     OW 7526   0.606   4.324   3.711 -0.3444 -0.1661 -0.0364
 2464SOL    HW1 7527   0.587   4.256   3.646  0.5493 -1.0653  0.6157
 2464SOL    HW2 7528   0.701   4.337   3.706 -0.2467 -0.3295  1.1556
 2465SOL     OW 7529   1.480   4.284   2.270  0.3752 -0.5056 -0.3245
 2465SOL    HW1 7530   1.547   4.352   2.283  0.5653 -0.2493 -2.2918
 2465SOL    HW2 7531   1.527   4.201   2.281  0.0258 -0.4173  2.6564
 2466SOL     OW 7532   3.090   4.936   3.650  0.7730 -0.4916 -0.2523
 2466SOL    HW1 7533   3.118   5.027   3.660 -1.4503  0.2641 -0.1895
 2466SOL    HW2 7534   3.133   4.890   3.722  0.3495  0.9494  0.9822
 2467SOL     OW 7535   4.482   2.807   1.639  0.4678  0.5967 -0.5017
 2467SOL    HW1 7536   4.395   2.823   1.602  0.1343  1.4723  0.5992
 2467SOL    HW2 7537   4.540   2.804   1.563 -0.7038 -1.6423 -1.4073
 2468SOL     OW 7538   0.129   4.549   0.910 -0.1455 -0.1099  0.2719
 2468SOL    HW1 7539   0.156   4.616   0.847 -1.1452 -1.3998 -1.6081
 2468SOL    HW2 7540   0.117   4.598   0.992  2.4182  1.4094 -0.1354
 2469SOL     OW 7541   1.417   1.342   0.289  0.1429  0.8147 -0.2139
 2469SOL    HW1 7542   1.483   1.412   0.299  0.3091  0.3934  2.0800
 2469SOL    HW2 7543   1.432   1.284   0.363 -1.9144 -0.0790 -0.4373
 2470SOL     OW 7544   0.759   1.781   1.325  0.2574 -0.0424 -0.0837
 2470SOL    HW1 7545   0.674   1.823   1.310 -0.1204 -0.9527 -0.5763
 2470SOL    HW2 7546   0.786   1.749   1.239  0.2397 -1.3173  0.3585
 2471SOL     OW 7547   0.307   0.875   3.647 -0.5523 -0.0081  0.0011
 2471SOL    HW1 7548   0.298   0.797   3.702  0.9598 -1.4581 -1.6630
 2471SOL    HW2 7549   0.282   0.846   3.559  2.4976  0.5703 -1.1927
 2472SOL     OW 7550   2.851   2.876   3.557  0.2549  0.0462 -0.1050
 2472SOL    HW1 7551   2.905   2.810   3.514  0.0265  0.4567 -1.0549
 2472SOL    HW2 7552   2.868   2.864   3.650 -0.1712 -1.6901 -0.2184
 2473SOL     OW 7553   4.906   0.709   1.958  0.0723  0.6783 -0.4231
 2473SOL    HW1 7554   4.855   0.730   1.879  1.1701 -0.2655 -1.4187
 2473SOL    HW2 7555   4.856   0.749   2.030 -0.6891  2.0105 -1.6368
 2474SOL     OW 7556   1.387   3.746   4.236 -0.5987  0.2987 -0.7563
 2474SOL    HW1 7557   1.387   3.808   4.309  0.0178 -0.1196 -0.3911
 2474SOL    HW2 7558   1.451   3.679   4.262 -1.0149 -0.3121 -1.2901
 2475SOL     OW 7559   2.276   0.197   3.857  0.0204  0.5589 -0.0416
 2475SOL    HW1 7560   2.339   0.125   3.849  0.5187  0.9471  0.2990
 2475SOL    HW2 7561   2.241   0.189   3.945  2.0620  2.2876  1.0189
 2476SOL     OW 7562   2.586   1.946   3.031 -0.1512  0.9506 -0.5127
 2476SOL    HW1 7563   2.584   1.940   3.126 -1.3966 -0.8738 -0.5936
 2476SOL    HW2 7564   2.676   1.921   3.008 -0.8497 -2.8048  0.1108
 2477SOL     OW 7565   1.176   2.496   0.678 -0.0832 -0.2110 -0.4309
 2477SOL    HW1 7566   1.173   2.521   0.770  0.2117  0.5039 -0.6105
 2477SOL    HW2 7567   1.087   2.510   0.646  0.3164  1.7524 -0.8080
 2478SOL     OW 7568   2.173   1.353   2.595  0.1723 -0.4606 -0.3414
 2478SOL    HW1 7569   2.169   1.447   2.613  0.8664 -0.3258 -0.8443
 2478SOL    HW2 7570   2.265   1.330   2.606 -0.0870 -1.2233  0.4087
 2479SOL     OW 7571   3.545   1.949   0.993 -0.8826 -0.4228  0.2451
 2479SOL    HW1 7572   3.613   1.937   0.927  0.8410  1.0108  1.6658
 2479SOL    HW2 7573   3.549   1.869   1.046 -0.1909 -0.3134  0.3754
 2480SOL     OW 7574   2.196   1.154   3.922 -0.0869  0.0337 -0.6479
 2480SOL    HW1 7575   2.126   1.219   3.934  0.8788  0.9504  0.2794
 2480SOL    HW2 7576   2.191   1.131   3.829 -1.0913  0.6872 -0.7760
 2481SOL     OW 7577   3.719   4.557   3.066 -0.0199  0.1363  0.0365
 2481SOL    HW1 7578   3.780   4.524   3.131  2.0208  1.8730 -0.8880
 2481SOL    HW2 7579   3.676   4.631   3.108  1.9693  1.8430 -0.7931
 2482SOL     OW 7580   1.891   4.228   2.483 -0.0165  0.2855  0.1223
 2482SOL    HW1 7581   1.943   4.272   2.550  0.1918 -0.0844  0.2105
 2482SOL    HW2 7582   1.831   4.295   2.450  1.0642  0.9536 -0.5526
 2483SOL     OW 7583   3.349   4.882   4.198 -0.0266 -0.1445 -0.1485
 2483SOL    HW1 7584   3.382   4.845   4.279 -2.2791 -2.4745 -0.1835
 2483SOL    HW2 7585   3.336   4.975   4.217  1.7018 -0.1568  1.3421
 2484SOL     OW 7586   1.039   0.960   2.904  0.3122 -0.2782 -0.7917
 2484SOL    HW1 7587   1.124   0.948   2.946 -0.4567 -1.6287  0.4824
 2484SOL    HW2 7588   0.976   0.962   2.977 -0.7369  1.1364 -1.6683
 2485SOL     OW 7589   4.108   0.253   1.219 -0.2782  0.1805 -0.3980
 2485SOL    HW1 7590   4.038   0.271   1.156  0.2391  0.5221 -0.8835
 2485SOL    HW2 7591   4.118   0.158   1.217  0.8625  0.3047 -2.0829
 2486SOL     OW 7592   4.600   3.526   1.550  0.4611 -0.4626 -0.5622
 2486SOL    HW1 7593   4.684   3.564   1.523  0.6138  1.4552  2.2388
 2486SOL    HW2 7594   4.534   3.585   1.514  0.3418 -1.1311 -1.4856
 2487SOL     OW 7595   2.257   4.027   1.461  0.0408 -0.5003 -0.7237
 2487SOL    HW1 7596   2.267   3.950   1.405  0.1176 -0.7745 -0.3417
 2487SOL    HW2 7597   2.294   4.099   1.410 -1.0430 -0.4957 -1.5491
 2488SOL     OW 7598   1.726   0.067   3.628 -0.0638  0.0586  0.4247
 2488SOL    HW1 7599   1.707   0.012   3.551  0.3087 -0.6641  0.8365
 2488SOL    HW2 7600   1.780   0.138   3.594  1.6958 -1.2661  0.3173
 2489SOL     OW 7601   2.101   1.168   0.326 -0.4721  0.4890 -0.0717
 2489SOL    HW1 7602   2.036   1.190   0.259 -0.0920  0.6129 -0.4018
 2489SOL    HW2 7603   2.152   1.097   0.287 -0.3933  0.4083  0.1776
 2490SOL     OW 7604   3.572   0.759   2.906 -0.3950  0.2721 -0.3744
 2490SOL    HW1 7605   3.576   0.854   2.892 -1.4825  0.4973  0.6982
 2490SOL    HW2 7606   3.582   0.721   2.818 -1.7248  1.4261 -1.0599
 2491SOL     OW 7607   4.163   4.177   4.545 -0.0457  0.2671  0.2558
 2491SOL    HW1 7608   4.255   4.171   4.572  0.7886  0.6174 -2.2325
 2491SOL    HW2 7609   4.152   4.268   4.518 -0.6812 -0.1150 -0.8317
 2492SOL     OW 7610   1.786   0.402   3.568  0.3877 -0.0841 -0.3887
 2492SOL    HW1 7611   1.698   0.430   3.592  0.3184  0.0534 -0.8023
 2492SOL    HW2 7612   1.840   0.429   3.642 -0.2307 -2.0514  0.8564
 2493SOL     OW 7613   1.085   2.270   2.338 -0.2171 -0.7514 -0.0360
 2493SOL    HW1 7614   1.134   2.219   2.402  0.1331 -0.4916 -0.0930
 2493SOL    HW2 7615   1.024   2.208   2.299 -1.2469 -0.6630  1.3621
 2494SOL     OW 7616   4.099   0.294   2.429  0.0971  0.3408  0.1280
 2494SOL    HW1 7617   4.073   0.206   2.458  0.6079 -0.3526 -1.4616
 2494SOL    HW2 7618   4.029   0.351   2.462 -1.1591 -0.8955 -0.3107
 2495SOL     OW 7619   2.726   0.766   2.614  0.0843 -0.2408  0.0631
 2495SOL    HW1 7620   2.744   0.710   2.689  1.1759  1.0286  0.7795
 2495SOL    HW2 7621   2.784   0.841   2.625  0.6149 -0.2238 -2.2969
 2496SOL     OW 7622   1.943   2.523   4.230  0.1056 -0.3951  0.5645
 2496SOL    HW1 7623   2.025   2.475   4.244  2.7039  3.6677  0.8843
 2496SOL    HW2 7624   1.906   2.531   4.318  1.7785  1.3876  1.1892
 2497SOL     OW 7625   1.772   3.605   1.033  0.0392  0.3915  0.0754
 2497SOL    HW1 7626   1.687   3.649   1.021 -0.3932 -0.6837 -1.0245
 2497SOL    HW2 7627   1.761   3.553   1.113 -1.6066 -2.4334 -1.8333
 2498SOL     OW 7628   2.440   4.182   2.638 -0.2868 -0.1427 -0.2051
 2498SOL    HW1 7629   2.502   4.136   2.582 -0.4273 -3.1776  1.8746
 2498SOL    HW2 7630   2.471   4.164   2.727 -2.6393  0.5371  0.8170
 2499SOL     OW 7631   1.300   0.397   1.977  0.3600 -0.1081  0.1350
 2499SOL    HW1 7632   1.294   0.339   1.901 -0.7063  0.1271  0.0296
 2499SOL    HW2 7633   1.392   0.394   2.002  0.8069  0.0681 -1.3776
 2500SOL     OW 7634   4.253   2.291   1.312  1.0854  0.6960 -0.3954
 2500SOL    HW1 7635   4.299   2.218   1.352  0.4494  0.7808  0.5223
 2500SOL    HW2 7636   4.237   2.264   1.222 -1.6095 -1.5316  0.6004
 2501SOL     OW 7637   2.891   1.746   2.107  0.8157  0.2375 -0.7532
 2501SOL    HW1 7638   2.842   1.700   2.039  0.4885  0.2769 -0.5494
 2501SOL    HW2 7639   2.896   1.683   2.179 -2.3320  1.4918  0.7547
 2502SOL     OW 7640   2.169   2.852   2.286  0.4853 -0.5488 -0.1342
 2502SOL    HW1 7641   2.161   2.840   2.381 -1.3589 -0.7061 -0.2702
 2502SOL    HW2 7642   2.213   2.937   2.276 -0.3033 -0.0030  0.8736
 2503SOL     OW 7643   0.272   0.106   4.319  0.4524  0.1666 -1.2475
 2503SOL    HW1 7644   0.288   0.031   4.377 -3.4929 -0.5591 -0.8068
 2503SOL    HW2 7645   0.281   0.070   4.231 -0.3170 -0.5815 -1.0381
 2504SOL     OW 7646   1.198   1.798   2.894  0.9053 -0.5638  0.2918
 2504SOL    HW1 7647   1.251   1.849   2.954  1.4700  1.3678 -1.7294
 2504SOL    HW2 7648   1.205   1.843   2.810 -4.2201  0.1463 -0.1039
 2505SOL     OW 7649   1.125   1.583   0.494  0.0879 -0.3337  0.3495
 2505SOL    HW1 7650   1.126   1.493   0.527  0.2099 -0.5057 -0.1209
 2505SOL    HW2 7651   1.148   1.637   0.570  3.3726 -0.9321 -0.0782
 2506SOL     OW 7652   3.307   3.731   1.236 -0.5243 -0.5433  0.5286
 2506SOL    HW1 7653   3.233   3.691   1.191 -0.6847  0.6850 -0.3380
 2506SOL    HW2 7654   3.333   3.804   1.179 -1.0745  1.4245  2.6686
 2507SOL     OW 7655   0.572   0.908   3.886 -0.3043  0.1589 -0.0077
 2507SOL    HW1 7656   0.537   0.892   3.974  0.9533 -1.2960  0.2791
 2507SOL    HW2 7657   0.512   0.863   3.827 -0.8118  0.6123  0.1599
 2508SOL     OW 7658   4.649   4.791   3.197 -0.6419  0.2053  0.0232
 2508SOL    HW1 7659   4.623   4.713   3.247 -0.0935  1.3297  2.2232
 2508SOL    HW2 7660   4.729   4.764   3.151 -1.9652 -1.2988 -1.5141
 2509SOL     OW 7661   0.052   1.651   4.383 -0.0200  0.1081  0.1114
 2509SOL    HW1 7662   0.052   1.723   4.321 -1.1402  0.8000  0.8757
 2509SOL    HW2 7663   0.079   1.690   4.466  2.4517 -0.9984 -0.0851
 2510SOL     OW 7664   0.651   0.276   1.876 -0.0011 -0.1296 -0.1784
 2510SOL    HW1 7665   0.746   0.287   1.870 -0.0070 -0.9450 -3.1684
 2510SOL    HW2 7666   0.615   0.359   1.843 -0.3254 -0.1340  0.1533
 2511SOL     OW 7667   0.713   3.706   4.296  0.0386  0.0863  0.6090
 2511SOL    HW1 7668   0.720   3.782   4.237  2.8862  0.1614  0.8834
 2511SOL    HW2 7669   0.675   3.637   4.242  1.0173  0.6375 -0.8634
 2512SOL     OW 7670   0.451   3.057   2.655  0.1685 -0.1705  0.1360
 2512SOL    HW1 7671   0.474   2.968   2.680 -4.4360 -2.2590 -1.8373
 2512SOL    HW2 7672   0.508   3.076   2.580  0.8523 -1.7014  0.2221
 2513SOL     OW 7673   1.712   1.000   4.710 -0.0085 -0.0295  0.4028
 2513SOL    HW1 7674   1.693   0.953   4.792 -0.9399 -0.7004 -0.1853
 2513SOL    HW2 7675   1.628   1.003   4.664  0.6758 -0.4100 -0.9138
 2514SOL     OW 7676   4.342   1.682   1.281  0.1825 -0.2128  0.6033
 2514SOL    HW1 7677   4.290   1.756   1.251  1.7821  0.5438 -0.4301
 2514SOL    HW2 7678   4.321   1.673   1.374 -0.8753  0.7990  0.4801
 2515SOL     OW 7679   0.017   3.658   3.956  0.3166  0.2481 -0.1210
 2515SOL    HW1 7680   0.086   3.721   3.976  1.2676 -1.1458  1.2447
 2515SOL    HW2 7681  -0.018   3.633   4.042 -1.7554  0.7182 -0.7551
 2516SOL     OW 7682   2.608   1.538   1.513  0.0073 -0.6737  0.6398
 2516SOL    HW1 7683   2.695   1.511   1.542 -0.6990 -2.9507  0.8207
 2516SOL    HW2 7684   2.612   1.533   1.418 -0.1939 -1.8139  0.6754
 2517SOL     OW 7685   0.974   0.156   3.990 -0.4657  0.1989  0.1402
 2517SOL    HW1 7686   0.957   0.188   3.901 -0.8088  0.6807  0.3721
 2517SOL    HW2 7687   1.050   0.206   4.019 -1.2229  1.0904  0.6375
 2518SOL     OW 7688   3.667   0.777   1.102 -0.1210  0.1713  0.2952
 2518SOL    HW1 7689   3.697   0.785   1.193 -1.4450 -0.6165  0.8208
 2518SOL    HW2 7690   3.710   0.849   1.056  1.3135  0.0207  1.3391
 2519SOL     OW 7691   4.776   0.822   1.581  0.6950  0.0746  0.0658
 2519SOL    HW1 7692   4.806   0.865   1.661  1.5233 -0.0646 -0.1585
 2519SOL    HW2 7693   4.680   0.831   1.583  0.7446  0.5261  0.8061
 2520SOL     OW 7694   2.167   0.858   2.634  0.5756  0.4978 -0.2191
 2520SOL    HW1 7695   2.262   0.856   2.625  0.7050  1.3964  0.6984
 2520SOL    HW2 7696   2.150   0.807   2.713  0.3491  0.8282 -0.0530
 2521SOL     OW 7697   4.598   4.301   0.086 -0.3414 -0.6952 -0.5350
 2521SOL    HW1 7698   4.561   4.255   0.161 -0.1564  0.5917  0.3786
 2521SOL    HW2 7699   4.528   4.300   0.021 -2.1036  1.6301  1.1290
 2522SOL     OW 7700   2.477   0.660   3.827 -0.0392  0.5000  0.7178
 2522SOL    HW1 7701   2.433   0.737   3.863  0.4336  0.6704  0.9314
 2522SOL    HW2 7702   2.406   0.598   3.809 -0.3667  0.7779  1.0512
 2523SOL     OW 7703   2.716   3.845   2.052 -0.4683  0.0654  0.2910
 2523SOL    HW1 7704   2.720   3.804   2.139  0.5219 -0.5486 -0.0228
 2523SOL    HW2 7705   2.631   3.818   2.017 -1.5332  1.5163  1.6118
 2524SOL     OW 7706   0.505   2.334   1.973 -0.2671 -0.5756 -0.2386
 2524SOL    HW1 7707   0.457   2.259   1.937 -2.4696  1.6898 -2.4658
 2524SOL    HW2 7708   0.483   2.335   2.066  1.1884 -3.5350  0.2593
 2525SOL     OW 7709   0.445   0.238   2.416 -0.1188  0.0139  0.1561
 2525SOL    HW1 7710   0.418   0.330   2.423  1.1976  0.3401  1.3177
 2525SOL    HW2 7711   0.496   0.235   2.335 -2.0931 -0.2597 -1.1724
 2526SOL     OW 7712   2.931   0.282   2.341  0.2118  0.0018 -0.0479
 2526SOL    HW1 7713   2.932   0.206   2.283 -2.5898 -0.6646  0.5953
 2526SOL    HW2 7714   2.961   0.248   2.425  0.7150  0.0633 -0.2006
 2527SOL     OW 7715   1.694   2.104   3.981  0.2845  0.0597 -0.0566
 2527SOL    HW1 7716   1.720   2.049   3.906 -0.1302  0.3899 -0.4480
 2527SOL    HW2 7717   1.771   2.104   4.038  0.0725 -1.4660  0.2754
 2528SOL     OW 7718   4.008   2.603   0.926  0.4274 -0.2744  0.2993
 2528SOL    HW1 7719   4.095   2.565   0.934  1.5969  2.2247  0.4635
 2528SOL    HW2 7720   3.994   2.649   1.008 -0.6707  0.0813 -0.0686
 2529SOL     OW 7721   2.197   2.284   2.421 -0.3642  0.6583  0.3443
 2529SOL    HW1 7722   2.173   2.377   2.421 -1.2106  0.4473  0.8148
 2529SOL    HW2 7723   2.205   2.261   2.513 -2.4090 -0.2860  0.3262
 2530SOL     OW 7724   0.175   4.497   0.438 -0.3605  0.2686 -0.2486
 2530SOL    HW1 7725   0.125   4.420   0.411  1.1026 -1.1953  0.9304
 2530SOL    HW2 7726   0.131   4.529   0.517 -0.5905  0.2159 -0.3576
 2531SOL     OW 7727   0.956   0.007   2.814 -0.0518 -0.1675 -0.4361
 2531SOL    HW1 7728   1.032  -0.024   2.766  1.4562  1.9015  0.4645
 2531SOL    HW2 7729   0.993   0.055   2.888 -2.2665 -1.3619  1.5780
 2532SOL     OW 7730   4.323   0.620   4.155  0.5631  0.0151 -0.2537
 2532SOL    HW1 7731   4.386   0.607   4.085  0.9773  0.3642  0.0538
 2532SOL    HW2 7732   4.238   0.600   4.115  0.6082  1.7745 -1.3010
 2533SOL     OW 7733   1.415   2.357   3.750 -0.3288  0.0070  0.0049
 2533SOL    HW1 7734   1.487   2.374   3.811 -0.7478  0.3671  0.4037
 2533SOL    HW2 7735   1.452   2.295   3.687  0.0686 -0.4996  0.7146
 2534SOL     OW 7736   0.912   1.047   0.245  0.1177  0.2251  0.5800
 2534SOL    HW1 7737   0.891   1.128   0.291 -0.5892  1.3834 -1.6513
 2534SOL    HW2 7738   0.840   0.988   0.267  0.5361  0.2120  2.0550
 2535SOL     OW 7739   4.957   2.721   4.428  0.5846 -0.0067 -0.0154
 2535SOL    HW1 7740   4.903   2.709   4.350 -0.7849 -0.7007  0.9949
 2535SOL    HW2 7741   5.011   2.642   4.432 -0.5412 -0.7738  0.6159
 2536SOL     OW 7742   0.124   0.472   3.971 -0.2616  0.7811 -0.4788
 2536SOL    HW1 7743   0.157   0.384   3.989  1.7701  1.7735  1.0324
 2536SOL    HW2 7744   0.108   0.511   4.057 -2.2269  1.5623 -1.1215
 2537SOL     OW 7745   0.481   2.588   3.994  0.0624 -0.1306 -0.1273
 2537SOL    HW1 7746   0.421   2.655   4.027  2.2311  1.0063  1.7609
 2537SOL    HW2 7747   0.538   2.633   3.933  0.3001 -0.7113 -0.3439
 2538SOL     OW 7748   0.706   3.294   0.712 -0.1302 -0.0751  0.0773
 2538SOL    HW1 7749   0.630   3.347   0.689 -0.6384 -1.3177 -1.3094
 2538SOL    HW2 7750   0.669   3.215   0.752  0.3023 -1.2346 -1.7062
 2539SOL     OW 7751   4.722   4.995   0.719  0.5265 -0.2846 -0.3367
 2539SOL    HW1 7752   4.682   5.073   0.757 -2.0904 -1.4095 -0.5939
 2539SOL    HW2 7753   4.790   5.030   0.661  0.6380  1.6849  0.8650
 2540SOL     OW 7754   1.124   3.357   1.936 -0.1539 -0.4364  0.1552
 2540SOL    HW1 7755   1.060   3.308   1.884 -1.1993 -0.0799  1.0745
 2540SOL    HW2 7756   1.204   3.354   1.884 -0.5801 -1.9076 -0.4675
 2541SOL     OW 7757   1.602   1.159   3.532  0.2517  0.5757  0.2720
 2541SOL    HW1 7758   1.510   1.176   3.548 -0.0671  2.7881 -2.9481
 2541SOL    HW2 7759   1.604   1.072   3.493 -0.5845  0.7938 -0.2815
 2542SOL     OW 7760   2.418   0.099   5.008 -0.2008  0.1386 -0.2733
 2542SOL    HW1 7761   2.458   0.178   4.971  0.9201 -1.0017 -1.6142
 2542SOL    HW2 7762   2.329   0.099   4.974 -0.5006  1.2577  0.4554
 2543SOL     OW 7763   1.944   1.010   4.556 -0.0015  0.3543  0.1587
 2543SOL    HW1 7764   1.861   1.000   4.602 -0.4775 -1.0770 -0.9550
 2543SOL    HW2 7765   1.981   1.091   4.592 -1.2051  0.2818  1.6805
 2544SOL     OW 7766   0.625   1.825   2.165 -0.3070  0.0698 -0.4048
 2544SOL    HW1 7767   0.664   1.903   2.204 -1.5283  0.1974  0.6430
 2544SOL    HW2 7768   0.544   1.812   2.215  0.9646 -3.2356  1.0704
 2545SOL     OW 7769   3.265   3.011   0.986  0.0138 -0.0367  0.2402
 2545SOL    HW1 7770   3.220   3.095   0.998 -0.7613 -0.3816 -0.2521
 2545SOL    HW2 7771   3.354   3.036   0.960 -0.2710  0.6373 -0.1072
 2546SOL     OW 7772   0.833   2.324   2.724  0.1187 -0.0158  1.1109
 2546SOL    HW1 7773   0.887   2.340   2.802 -2.1465 -0.4186  2.8692
 2546SOL    HW2 7774   0.754   2.282   2.758 -0.3980 -1.4511 -1.6040
 2547SOL     OW 7775   2.493   0.792   4.119  0.1633 -0.2219  0.2344
 2547SOL    HW1 7776   2.418   0.846   4.093  0.1470 -0.7938 -0.9594
 2547SOL    HW2 7777   2.532   0.839   4.192 -1.1072  0.3132  0.6052
 2548SOL     OW 7778   0.875   4.900   4.884 -0.0734  0.4252 -0.2001
 2548SOL    HW1 7779   0.888   4.844   4.961  0.9191  0.1139 -0.5767
 2548SOL    HW2 7780   0.955   4.952   4.878 -1.2191  2.3624  0.4939
 2549SOL     OW 7781   3.954   1.513   4.012 -0.5474 -0.4878 -0.4587
 2549SOL    HW1 7782   3.929   1.497   4.103  0.7164  1.3070  0.2580
 2549SOL    HW2 7783   4.041   1.475   4.004 -0.2716  0.1744 -0.6373
 2550SOL     OW 7784   0.839   0.804   3.852  0.3969 -0.4308  0.4360
 2550SOL    HW1 7785   0.745   0.823   3.848  1.1613  4.3647 -0.8179
 2550SOL    HW2 7786   0.857   0.757   3.770 -0.8017 -1.1178  0.5344
 2551SOL     OW 7787   3.024   2.355   1.873 -0.5526  0.0949  0.0009
 2551SOL    HW1 7788   2.940   2.397   1.889 -1.1757  0.0290 -2.5693
 2551SOL    HW2 7789   3.013   2.311   1.788  1.3196 -1.9374  0.6998
 2552SOL     OW 7790   2.745   3.456   0.386 -0.4331  0.5865  0.0850
 2552SOL    HW1 7791   2.695   3.447   0.304 -1.4713  3.3011  0.3231
 2552SOL    HW2 7792   2.816   3.393   0.377 -2.6449 -1.9708 -1.2182
 2553SOL     OW 7793   3.599   4.764   1.815 -0.3787 -0.7970 -0.5042
 2553SOL    HW1 7794   3.605   4.758   1.720 -1.4643  2.9382 -0.9524
 2553SOL    HW2 7795   3.687   4.742   1.847  0.0364 -1.9644 -2.3075
 2554SOL     OW 7796   2.422   1.411   4.052 -0.2113  0.1233  0.3851
 2554SOL    HW1 7797   2.457   1.334   4.097  0.1112  0.9224  1.5218
 2554SOL    HW2 7798   2.423   1.386   3.959 -0.0689 -1.2188  0.7228
 2555SOL     OW 7799   2.264   1.164   1.038 -0.2088  0.1144 -0.0695
 2555SOL    HW1 7800   2.189   1.145   0.983 -0.3155 -0.1087  0.1542
 2555SOL    HW2 7801   2.340   1.156   0.979 -0.2690 -0.7650 -0.0315
 2556SOL     OW 7802   4.909   0.645   3.466 -0.3083 -0.3287  0.2510
 2556SOL    HW1 7803   4.941   0.582   3.530  2.3269  0.3284 -0.2811
 2556SOL    HW2 7804   4.898   0.726   3.516  1.3248  0.0686  0.0363
 2557SOL     OW 7805   1.874   3.754   0.335  0.3145  0.0150  0.1557
 2557SOL    HW1 7806   1.812   3.689   0.302 -0.7336 -0.3249  2.6026
 2557SOL    HW2 7807   1.820   3.821   0.376  1.4981  1.2005 -0.1283
 2558SOL     OW 7808   4.823   2.454   2.281 -0.3943  0.2236 -0.0502
 2558SOL    HW1 7809   4.848   2.526   2.223 -0.6652 -0.7974 -1.4972
 2558SOL    HW2 7810   4.759   2.404   2.230  0.3906 -1.4830  0.5935
 2559SOL     OW 7811   2.821   1.744   4.380 -0.1586 -0.0530 -0.2946
 2559SOL    HW1 7812   2.755   1.806   4.351 -1.1792 -1.0175 -0.1002
 2559SOL    HW2 7813   2.893   1.798   4.412  0.0762  1.0494 -2.4703
 2560SOL     OW 7814   0.104   1.061   4.563 -0.0646 -0.4182 -0.0197
 2560SOL    HW1 7815   0.113   1.135   4.503 -1.5323 -0.9837 -1.0055
 2560SOL    HW2 7816   0.193   1.038   4.587  0.5845 -0.1435 -1.9890
 2561SOL     OW 7817   0.270   0.573   2.345 -0.1932 -0.8351 -0.0726
 2561SOL    HW1 7818   0.328   0.607   2.278 -1.6448 -1.1207 -1.5258
 2561SOL    HW2 7819   0.310   0.601   2.428  1.2649  0.1062 -1.0534
 2562SOL     OW 7820   1.923   3.876   3.681  0.0521  0.6112  0.1880
 2562SOL    HW1 7821   1.959   3.793   3.710 -0.3549 -0.3573 -1.8961
 2562SOL    HW2 7822   1.999   3.930   3.661  0.4367 -0.5513 -1.8151
 2563SOL     OW 7823   4.383   0.670   2.855 -0.2271  0.1629 -1.0699
 2563SOL    HW1 7824   4.458   0.706   2.903 -0.7523  0.4778 -0.4756
 2563SOL    HW2 7825   4.351   0.599   2.911 -1.4215  1.1350 -0.4680
 2564SOL     OW 7826   1.736   3.517   2.333 -0.5826  0.1039  0.8587
 2564SOL    HW1 7827   1.829   3.538   2.337 -0.0140 -2.2124  1.0507
 2564SOL    HW2 7828   1.692   3.591   2.376  1.0521  1.6850 -0.0770
 2565SOL     OW 7829   3.511   2.275   4.045  0.1970 -0.1853 -0.0623
 2565SOL    HW1 7830   3.468   2.189   4.046  0.7141 -0.4751 -1.4401
 2565SOL    HW2 7831   3.602   2.256   4.068  0.5494 -0.1637 -1.3779
 2566SOL     OW 7832   1.439   0.842   4.786  0.3241  0.4312  0.1250
 2566SOL    HW1 7833   1.411   0.789   4.711 -0.6752  2.9168 -1.3795
 2566SOL    HW2 7834   1.365   0.839   4.846  0.6079 -0.4959  0.4540
 2567SOL     OW 7835   0.729   1.852  -0.016 -0.2367  0.0278 -0.9899
 2567SOL    HW1 7836   0.780   1.852   0.066  2.2601  1.7813 -2.3807
 2567SOL    HW2 7837   0.650   1.902   0.005 -0.1038 -0.3735  0.5765
 2568SOL     OW 7838   1.183   2.358   3.461  0.3580 -0.4656  0.9020
 2568SOL    HW1 7839   1.252   2.355   3.528 -1.5839 -1.3028  3.0159
 2568SOL    HW2 7840   1.155   2.450   3.460  1.8337  0.0205 -0.4315
 2569SOL     OW 7841   2.076   0.481   3.113  0.3592 -0.6501 -0.8638
 2569SOL    HW1 7842   2.153   0.530   3.144 -0.0713 -1.2112  1.2554
 2569SOL    HW2 7843   2.112   0.417   3.052  1.8046 -1.7034  0.9917
 2570SOL     OW 7844   2.097   3.066   4.787 -0.1977 -0.2783 -0.3333
 2570SOL    HW1 7845   2.056   3.129   4.729 -1.9065 -1.7396 -0.7940
 2570SOL    HW2 7846   2.025   3.012   4.820  1.0210 -1.1023  1.1652
 2571SOL     OW 7847   3.230   0.122   1.883  0.2491 -0.5797  0.5982
 2571SOL    HW1 7848   3.242   0.211   1.851 -0.4185 -0.4121  0.7859
 2571SOL    HW2 7849   3.300   0.072   1.842  0.4747 -0.0201  0.2854
 2572SOL     OW 7850   4.733   0.180   4.376  0.2821  0.1932 -0.2720
 2572SOL    HW1 7851   4.755   0.246   4.310  0.8646  0.5507  0.2596
 2572SOL    HW2 7852   4.689   0.111   4.328  0.1550  0.7263 -0.9343
 2573SOL     OW 7853   2.777   3.096   2.542 -0.3161  0.4102  0.4352
 2573SOL    HW1 7854   2.836   3.022   2.562  0.4154 -0.2570 -3.3977
 2573SOL    HW2 7855   2.695   3.073   2.585 -0.4018 -3.2201 -1.2979
 2574SOL     OW 7856   4.055   4.191   0.222  0.0332 -0.0517  0.6514
 2574SOL    HW1 7857   4.017   4.277   0.240 -0.4875 -0.2276  0.4186
 2574SOL    HW2 7858   4.065   4.189   0.127 -1.5229 -0.8733  0.4648
 2575SOL     OW 7859   2.008   2.064   1.331  0.0801 -0.5941 -0.6119
 2575SOL    HW1 7860   2.074   2.019   1.278 -0.9806 -0.3440 -2.2238
 2575SOL    HW2 7861   2.054   2.138   1.370  0.6875 -0.1905 -2.0266
 2576SOL     OW 7862   3.559   2.164   4.465 -0.0510  0.1491  0.3224
 2576SOL    HW1 7863   3.494   2.190   4.530  0.2426 -0.0095  0.6812
 2576SOL    HW2 7864   3.643   2.188   4.504  0.1287  0.0368  0.0097
 2577SOL     OW 7865   1.447   4.053   3.786 -0.8849 -0.5374  0.2629
 2577SOL    HW1 7866   1.510   4.030   3.718  0.9972  2.0006  1.0304
 2577SOL    HW2 7867   1.452   3.980   3.848  2.6405  0.2803  1.1471
 2578SOL     OW 7868   2.704   3.706   2.846  0.2823 -0.0011 -0.1966
 2578SOL    HW1 7869   2.734   3.795   2.830  0.7067  0.2319  1.6543
 2578SOL    HW2 7870   2.622   3.715   2.893  0.2208 -0.5897 -0.1758
 2579SOL     OW 7871   1.100   2.218   1.547 -0.5737 -0.1009 -0.2145
 2579SOL    HW1 7872   1.175   2.160   1.558 -1.0277 -0.5087  0.8474
 2579SOL    HW2 7873   1.074   2.207   1.455 -0.3036 -1.1514 -0.1792
 2580SOL     OW 7874   2.443   4.533   2.453 -0.5808 -0.6873  0.3099
 2580SOL    HW1 7875   2.524   4.574   2.485 -1.2966 -0.1079  1.4489
 2580SOL    HW2 7876   2.446   4.545   2.358 -0.1341  0.8648  0.4886
 2581SOL     OW 7877   4.581   4.771   1.869 -0.3899  0.0226 -0.2210
 2581SOL    HW1 7878   4.546   4.784   1.957 -1.9498  1.3251 -0.9909
 2581SOL    HW2 7879   4.580   4.858   1.829  2.6360 -0.0701 -0.7536
 2582SOL     OW 7880   3.479   4.126   1.276  0.3256  0.3797 -0.6278
 2582SOL    HW1 7881   3.532   4.154   1.350 -0.0145  2.9309 -1.2628
 2582SOL    HW2 7882   3.542   4.101   1.208  0.6814  0.9364 -0.5036
 2583SOL     OW 7883   2.722   2.092   4.037 -0.4350  0.5442 -0.2291
 2583SOL    HW1 7884   2.758   2.108   4.124 -0.1150  1.5338 -0.5336
 2583SOL    HW2 7885   2.684   2.176   4.011 -0.7887  0.1745 -0.9200
 2584SOL     OW 7886   1.526   4.187   4.533 -0.4831  0.0094 -0.0245
 2584SOL    HW1 7887   1.539   4.179   4.628  1.7115 -0.0509 -0.2741
 2584SOL    HW2 7888   1.471   4.112   4.510  1.9700 -2.2107  0.7487
 2585SOL     OW 7889   2.982   3.977   4.111 -0.6310 -0.1526  0.3620
 2585SOL    HW1 7890   3.058   4.019   4.072 -2.0440  1.2457 -1.0236
 2585SOL    HW2 7891   3.003   3.884   4.110  1.3831  0.2486  0.7942
 2586SOL     OW 7892   4.317   4.335   1.014 -0.1961 -0.9852 -0.0734
 2586SOL    HW1 7893   4.412   4.326   1.015 -0.1547 -0.6780 -0.7564
 2586SOL    HW2 7894   4.300   4.398   0.945 -0.7755  0.5735  1.4150
 2587SOL     OW 7895   3.330   4.438   3.752 -0.0679 -0.0961  0.2371
 2587SOL    HW1 7896   3.321   4.511   3.690 -3.4757  1.2083  2.0453
 2587SOL    HW2 7897   3.294   4.363   3.706 -1.1503  0.5135  0.0691
 2588SOL     OW 7898   3.490   2.347   4.683  0.4031  0.1433  0.1798
 2588SOL    HW1 7899   3.418   2.377   4.739 -0.4632 -1.9272  0.2563
 2588SOL    HW2 7900   3.553   2.309   4.744  0.6598  0.1792 -0.0602
 2589SOL     OW 7901   2.309   1.990   0.625  0.3494 -0.1675 -0.0589
 2589SOL    HW1 7902   2.343   1.908   0.660 -2.8024 -0.5041  2.8083
 2589SOL    HW2 7903   2.273   1.966   0.539  3.1479 -0.6974 -1.1929
 2590SOL     OW 7904   0.824   0.990   3.095  0.1269 -0.4520 -0.0898
 2590SOL    HW1 7905   0.895   0.973   3.157 -0.6178  0.3610  1.0120
 2590SOL    HW2 7906   0.758   1.037   3.145 -1.1838 -1.1174 -1.1061
 2591SOL     OW 7907   2.973   3.650   2.673 -0.2448  0.8083  0.6505
 2591SOL    HW1 7908   2.934   3.600   2.602  2.4589 -3.3325  1.6989
 2591SOL    HW2 7909   2.931   3.617   2.752  2.2064 -0.6787  1.4437
 2592SOL     OW 7910   2.950   0.700   1.124  0.0118 -0.4535  0.3942
 2592SOL    HW1 7911   2.868   0.716   1.170 -0.0096  0.7583 -0.0380
 2592SOL    HW2 7912   2.928   0.631   1.060 -1.9018  2.6747 -2.6960
 2593SOL     OW 7913   4.605   1.320   2.112  0.0123  0.4415  0.4506
 2593SOL    HW1 7914   4.577   1.402   2.071  1.6475  0.4689 -0.7002
 2593SOL    HW2 7915   4.641   1.347   2.197 -0.6818  0.7255  0.6710
 2594SOL     OW 7916   0.899   2.147   4.644 -0.1507  0.7420 -0.3423
 2594SOL    HW1 7917   0.806   2.153   4.625 -0.1537  0.1086 -0.5347
 2594SOL    HW2 7918   0.906   2.078   4.711  0.1820  0.7553 -0.3607
 2595SOL     OW 7919   0.549   0.331   2.151 -0.5366 -0.1244  0.2786
 2595SOL    HW1 7920   0.644   0.343   2.143 -0.4105 -0.9515  0.4097
 2595SOL    HW2 7921   0.519   0.320   2.061 -0.3609 -0.8424  0.3026
 2596SOL     OW 7922   0.763   1.658   3.118 -0.1889  0.2249 -0.7839
 2596SOL    HW1 7923   0.726   1.572   3.140  1.3054  0.1087  1.6850
 2596SOL    HW2 7924   0.831   1.639   3.053  1.2001 -0.7660  0.8641
 2597SOL     OW 7925   1.761   0.600   3.962  0.2692  0.3320 -0.0251
 2597SOL    HW1 7926   1.684   0.649   3.933  0.1222 -0.0104 -0.2068
 2597SOL    HW2 7927   1.743   0.581   4.054 -0.6802 -1.2852 -0.5018
 2598SOL     OW 7928   4.279   0.659   2.364  0.5345  0.4502  0.2993
 2598SOL    HW1 7929   4.191   0.677   2.332 -0.8566  0.1390  3.5927
 2598SOL    HW2 7930   4.299   0.731   2.424  1.8229 -0.3419  0.8712
 2599SOL     OW 7931   0.299   2.317   0.523 -0.1309  0.0567  0.4994
 2599SOL    HW1 7932   0.218   2.268   0.539 -0.1278  0.1352  0.7585
 2599SOL    HW2 7933   0.270   2.402   0.490 -0.1774  0.2791  1.0941
 2600SOL     OW 7934   0.048   2.806   2.651 -0.4094  0.2624  0.1711
 2600SOL    HW1 7935   0.012   2.803   2.562  0.2888 -2.7512 -0.1387
 2600SOL    HW2 7936   0.143   2.808   2.638 -0.3240  0.6085  0.8554
 2601SOL     OW 7937   4.626   2.731   0.332  0.2812  0.2593 -0.0601
 2601SOL    HW1 7938   4.681   2.654   0.317  0.5552  0.9161 -3.0767
 2601SOL    HW2 7939   4.687   2.799   0.358  1.2176  1.1673 -4.0479
 2602SOL     OW 7940   1.352   4.477   1.839 -0.6370 -0.3413  0.2701
 2602SOL    HW1 7941   1.400   4.473   1.922 -0.1373 -1.1580 -0.0458
 2602SOL    HW2 7942   1.283   4.411   1.848  1.2649 -2.6544 -1.0680
 2603SOL     OW 7943   3.287   0.449   0.394  0.1078  0.3575 -0.9802
 2603SOL    HW1 7944   3.350   0.381   0.372  0.3955  0.9180 -1.9777
 2603SOL    HW2 7945   3.297   0.462   0.488  0.6054 -0.4182 -0.9193
 2604SOL     OW 7946   0.447   2.314   3.925 -0.2315  0.1667 -0.1646
 2604SOL    HW1 7947   0.460   2.280   4.014 -1.0723  0.3013  0.0176
 2604SOL    HW2 7948   0.443   2.409   3.937  0.0738  0.2126 -0.4076
 2605SOL     OW 7949   0.155   1.511   3.007 -0.3712 -0.1787 -0.0833
 2605SOL    HW1 7950   0.159   1.567   2.929  1.5091 -1.4036 -0.9691
 2605SOL    HW2 7951   0.160   1.571   3.081 -2.9263  1.0726 -0.8401
 2606SOL     OW 7952   0.476   4.709   3.696 -0.1860  0.0206 -0.2079
 2606SOL    HW1 7953   0.546   4.755   3.742  0.3392 -1.0979  0.1530
 2606SOL    HW2 7954   0.478   4.621   3.733 -0.5161 -0.5797 -1.5664
 2607SOL     OW 7955   1.147   1.788   2.536  0.2435 -0.4726 -0.2220
 2607SOL    HW1 7956   1.173   1.766   2.446  2.5188 -1.9601  0.7119
 2607SOL    HW2 7957   1.111   1.706   2.571  1.6033 -0.6272  0.9162
 2608SOL     OW 7958   4.048   3.112   2.974 -0.4435 -0.3526  0.6912
 2608SOL    HW1 7959   4.008   3.190   3.012 -1.6731 -1.6366  2.1759
 2608SOL    HW2 7960   4.088   3.067   3.049  0.4312 -1.0543 -0.1642
 2609SOL     OW 7961   3.972   0.086   1.856 -0.1854 -0.5382  0.1199
 2609SOL    HW1 7962   3.953   0.172   1.818  2.3572  0.8847  1.7103
 2609SOL    HW2 7963   4.032   0.045   1.794  1.7835  0.6317  1.1271
 2610SOL     OW 7964   3.510   0.269   1.880  0.4098 -0.0633 -0.1917
 2610SOL    HW1 7965   3.494   0.182   1.916 -0.4301 -0.3025 -1.0898
 2610SOL    HW2 7966   3.551   0.253   1.795 -0.8046  0.3558 -0.8810
 2611SOL     OW 7967   4.054   2.352   0.642  0.2569 -0.3653 -0.0726
 2611SOL    HW1 7968   4.020   2.348   0.552  0.9094 -2.4008 -0.2960
 2611SOL    HW2 7969   4.122   2.419   0.639 -1.6902  1.7105 -0.3229
 2612SOL     OW 7970   4.063   1.464   2.975 -0.1760 -0.2200 -0.2952
 2612SOL    HW1 7971   4.114   1.491   2.898  0.6128 -0.9586 -0.0495
 2612SOL    HW2 7972   3.985   1.519   2.973 -0.6033 -0.8486 -2.1251
 2613SOL     OW 7973   0.601   2.837   1.424  0.3708  0.5370 -0.0825
 2613SOL    HW1 7974   0.611   2.892   1.501  1.4162  1.8723 -1.1065
 2613SOL    HW2 7975   0.602   2.899   1.350  3.1209 -0.9142 -1.3978
 2614SOL     OW 7976   0.703   2.662   4.409  0.2343  0.2690  0.7019
 2614SOL    HW1 7977   0.751   2.589   4.448 -3.5336 -1.2856  3.0085
 2614SOL    HW2 7978   0.625   2.622   4.371 -0.2323  2.7740 -1.2442
 2615SOL     OW 7979   1.598   2.671   4.023 -0.0294  0.3074 -0.7761
 2615SOL    HW1 7980   1.518   2.666   4.076 -0.7398 -0.7312 -1.8917
 2615SOL    HW2 7981   1.666   2.698   4.085 -0.4164 -2.5719  1.1301
 2616SOL     OW 7982   4.977   4.836   0.480  0.4423 -0.0947  0.2929
 2616SOL    HW1 7983   5.006   4.757   0.525 -0.1289 -0.6137 -0.2261
 2616SOL    HW2 7984   4.944   4.805   0.396  1.3759  0.8462 -0.4387
 2617SOL     OW 7985   1.794   2.027   1.696 -0.3973 -0.3678 -0.1455
 2617SOL    HW1 7986   1.716   2.055   1.744  0.9232  0.3552  1.6885
 2617SOL    HW2 7987   1.815   1.941   1.732 -0.1085 -0.3769 -0.3340
 2618SOL     OW 7988   2.071   1.643   4.939  0.3850  0.2491  0.0126
 2618SOL    HW1 7989   2.135   1.668   5.005  1.1856  1.0845 -1.0512
 2618SOL    HW2 7990   2.001   1.708   4.947  0.1258 -0.0851  0.5160
 2619SOL     OW 7991   0.976   3.121   3.790  0.0246  0.5723  0.1246
 2619SOL    HW1 7992   1.063   3.080   3.790 -1.3603 -2.6170 -0.5136
 2619SOL    HW2 7993   0.946   3.112   3.881 -0.9408 -1.5590 -0.3405
 2620SOL     OW 7994   4.372   1.690   0.521  0.3252 -0.3498 -0.2533
 2620SOL    HW1 7995   4.306   1.625   0.498 -1.5471  1.0828  0.7855
 2620SOL    HW2 7996   4.328   1.775   0.508  0.6162  0.6569  3.8746
 2621SOL     OW 7997   4.620   1.916   2.298 -0.3604 -0.3549  0.0709
 2621SOL    HW1 7998   4.559   1.973   2.252 -0.4081 -0.6846 -0.2799
 2621SOL    HW2 7999   4.601   1.930   2.391 -0.3441  0.2238 -0.0083
 2622SOL     OW 8000   1.149   2.437   3.798 -0.1066 -0.3612  0.6785
 2622SOL    HW1 8001   1.176   2.512   3.851  2.3156  0.4260 -1.4794
 2622SOL    HW2 8002   1.227   2.384   3.789 -0.9851 -1.5341 -0.4104
 2623SOL     OW 8003   3.862   0.777   4.104  0.0157  0.7885 -0.1629
 2623SOL    HW1 8004   3.837   0.838   4.034  2.8102  1.0473 -1.0429
 2623SOL    HW2 8005   3.822   0.694   4.078 -1.1542  1.4591 -0.6436
 2624SOL     OW 8006   0.096   0.279   1.982  0.3504 -0.3110  0.0479
 2624SOL    HW1 8007   0.101   0.322   1.897  3.1277 -0.8614 -0.1559
 2624SOL    HW2 8008   0.055   0.194   1.964 -1.9280  0.7282 -0.1200
 2625SOL     OW 8009   4.453   3.001   3.181 -0.1890 -0.7485 -0.7828
 2625SOL    HW1 8010   4.504   2.920   3.172 -1.3092 -1.6915  0.8275
 2625SOL    HW2 8011   4.465   3.026   3.272 -1.7247 -0.4063 -0.6592
 2626SOL     OW 8012   4.368   3.295   0.840  0.3731 -0.1876  0.5131
 2626SOL    HW1 8013   4.311   3.337   0.905 -0.2391 -1.6939  0.9885
 2626SOL    HW2 8014   4.340   3.333   0.757  0.4528  0.9919  1.0046
 2627SOL     OW 8015   3.885   3.937   3.520 -0.3551  0.2822 -0.6507
 2627SOL    HW1 8016   3.934   4.003   3.471  1.3707 -1.0868 -0.8840
 2627SOL    HW2 8017   3.867   3.869   3.455  2.1699 -1.6687  0.5273
 2628SOL     OW 8018   1.362   3.862   3.985 -0.2488  0.2206  0.3972
 2628SOL    HW1 8019   1.453   3.834   3.972 -0.6065 -1.1845  0.6981
 2628SOL    HW2 8020   1.334   3.816   4.064 -2.4850 -2.8041 -1.8921
 2629SOL     OW 8021   1.026   1.994   2.360  0.3434  0.3696 -0.1298
 2629SOL    HW1 8022   1.076   1.974   2.439  0.8592  2.3204  0.0694
 2629SOL    HW2 8023   1.066   1.939   2.293 -0.4461 -1.7191  1.0144
 2630SOL     OW 8024   1.854   4.098   4.735  0.1083 -0.2416 -0.1661
 2630SOL    HW1 8025   1.797   4.021   4.725 -0.6872  0.3398 -0.2125
 2630SOL    HW2 8026   1.878   4.122   4.646  1.6478 -1.3535 -0.0914
 2631SOL     OW 8027   4.650   3.842   3.514 -0.2030 -0.2246  0.0360
 2631SOL    HW1 8028   4.639   3.776   3.582  0.3721 -0.3029  0.0624
 2631SOL    HW2 8029   4.593   3.813   3.443 -0.3274 -0.4824  0.2386
 2632SOL     OW 8030   1.389   2.530   0.211  0.3488 -0.0238  0.5568
 2632SOL    HW1 8031   1.349   2.600   0.263  0.2338  2.9186 -3.0546
 2632SOL    HW2 8032   1.318   2.466   0.199 -1.0738  1.5184  0.2881
 2633SOL     OW 8033   4.420   1.023   3.003  0.1355  0.3649  0.3311
 2633SOL    HW1 8034   4.351   1.002   2.940  1.9413  0.3445 -1.7640
 2633SOL    HW2 8035   4.428   0.944   3.056  0.3157 -0.6667 -1.1628
 2634SOL     OW 8036   3.997   3.989   4.626 -0.2266  0.4626 -0.1869
 2634SOL    HW1 8037   4.021   3.964   4.715 -0.4897  2.4218  0.4967
 2634SOL    HW2 8038   4.053   4.064   4.607  1.3850 -1.1967 -2.5512
 2635SOL     OW 8039   4.026   3.886   4.183 -0.4598  0.3322 -0.3993
 2635SOL    HW1 8040   3.939   3.871   4.219 -0.8572 -3.9500 -2.4659
 2635SOL    HW2 8041   4.015   3.872   4.089  2.1685  1.6992 -1.0049
 2636SOL     OW 8042   2.711   2.642   0.526 -0.3371 -0.6722 -0.5748
 2636SOL    HW1 8043   2.700   2.669   0.617 -0.7261  1.5703 -1.2181
 2636SOL    HW2 8044   2.717   2.546   0.529  0.5596 -0.5941  1.8738
 2637SOL     OW 8045   0.929   4.280   4.807 -0.1517  0.2757 -0.2190
 2637SOL    HW1 8046   0.898   4.241   4.889  2.4430  0.5334  0.9889
 2637SOL    HW2 8047   0.872   4.356   4.794 -1.2577 -0.3483  0.7745
 2638SOL     OW 8048   0.416   2.385   2.527  0.0610  0.1464  0.4352
 2638SOL    HW1 8049   0.320   2.379   2.521  0.1180 -0.0067 -0.3701
 2638SOL    HW2 8050   0.433   2.399   2.620 -0.6481 -1.8571  0.9267
 2639SOL     OW 8051   0.177   1.480   4.592  0.2079  0.2846 -0.2187
 2639SOL    HW1 8052   0.195   1.447   4.679 -1.0246  0.6635  0.1975
 2639SOL    HW2 8053   0.154   1.572   4.605  0.9565  0.6177 -1.0607
 2640SOL     OW 8054   0.122   2.368   2.522 -0.1952 -0.2166  0.4108
 2640SOL    HW1 8055   0.055   2.434   2.539 -0.6589  0.4735 -3.2500
 2640SOL    HW2 8056   0.083   2.311   2.455  1.5001 -2.1495  0.9520
 2641SOL     OW 8057   1.311   4.362   2.471 -0.0052  0.1001 -0.5078
 2641SOL    HW1 8058   1.372   4.368   2.397  0.9477  0.4051  0.2676
 2641SOL    HW2 8059   1.314   4.271   2.498  0.5000  0.2119 -0.1677
 2642SOL     OW 8060   1.624   1.773   0.583 -0.4623  0.2031 -0.5174
 2642SOL    HW1 8061   1.570   1.721   0.643 -0.7412  1.0490 -0.0165
 2642SOL    HW2 8062   1.571   1.780   0.503 -1.0195  0.8478 -0.1039
 2643SOL     OW 8063   4.202   1.464   3.209  0.1266  0.2903 -0.5404
 2643SOL    HW1 8064   4.296   1.450   3.205  0.4152  2.2518 -1.7329
 2643SOL    HW2 8065   4.172   1.449   3.119 -1.0123 -1.8996  0.1158
 2644SOL     OW 8066   3.507   1.312   2.872  0.5640  0.0345 -0.4523
 2644SOL    HW1 8067   3.482   1.377   2.806  0.4378 -0.6512 -1.1075
 2644SOL    HW2 8068   3.600   1.325   2.884  0.4291  0.7273 -0.1327
 2645SOL     OW 8069   0.065   4.151   2.740 -0.3801 -0.5299  0.2843
 2645SOL    HW1 8070   0.112   4.070   2.722  1.2974  0.3816  0.4200
 2645SOL    HW2 8071   0.126   4.204   2.791 -1.1047  1.1595 -0.5168
 2646SOL     OW 8072   0.261   4.999   4.904 -0.2020 -0.1333 -0.6223
 2646SOL    HW1 8073   0.246   5.093   4.902 -2.8404 -0.4693 -0.2987
 2646SOL    HW2 8074   0.278   4.979   4.996  0.0354 -0.0422 -0.6438
 2647SOL     OW 8075   2.784   1.230   1.714  0.1609 -0.4643  0.2403
 2647SOL    HW1 8076   2.704   1.267   1.751 -0.5112  1.2504 -2.5989
 2647SOL    HW2 8077   2.822   1.302   1.662  2.7973 -1.6651  0.3374
 2648SOL     OW 8078   4.893   2.962   1.976  0.3518 -0.0143 -0.1266
 2648SOL    HW1 8079   4.862   2.877   1.944  0.6523  0.0794 -0.6978
 2648SOL    HW2 8080   4.815   3.007   2.008  0.5160 -1.4762  2.5484
 2649SOL     OW 8081   1.296   2.194   1.346 -0.0156 -0.2456  0.0482
 2649SOL    HW1 8082   1.237   2.137   1.297 -1.3389  2.2738 -1.4880
 2649SOL    HW2 8083   1.384   2.168   1.318 -0.5501 -1.7303 -0.3076
 2650SOL     OW 8084  -0.024   3.078   1.437 -0.0765  0.4059  0.0422
 2650SOL    HW1 8085  -0.020   3.028   1.519  1.6541  0.8911  0.2919
 2650SOL    HW2 8086   0.067   3.096   1.415 -0.1390 -2.5369 -3.7593
 2651SOL     OW 8087   0.287   0.208   2.705  0.4662  0.2469 -0.5050
 2651SOL    HW1 8088   0.220   0.256   2.755 -0.6161 -1.4409 -0.2500
 2651SOL    HW2 8089   0.261   0.218   2.614  0.6464  0.7099 -0.5085
 2652SOL     OW 8090   2.071   1.500   1.819  0.0633 -0.5944  0.4690
 2652SOL    HW1 8091   2.051   1.463   1.905  0.0347  0.3765  0.8977
 2652SOL    HW2 8092   2.114   1.584   1.839 -0.6511  0.0127 -0.4557
 2653SOL     OW 8093   4.831   3.632   3.266  0.5982  0.3817  0.4315
 2653SOL    HW1 8094   4.907   3.654   3.320 -1.3245  4.8473  1.7693
 2653SOL    HW2 8095   4.783   3.567   3.317  1.4949  0.5207  1.4870
 2654SOL     OW 8096   3.409   1.812   4.396 -0.0794 -0.6669  0.0967
 2654SOL    HW1 8097   3.493   1.775   4.424 -0.4639 -0.9473  0.9375
 2654SOL    HW2 8098   3.361   1.738   4.360  0.2568 -0.3840 -0.9661
 2655SOL     OW 8099   2.885   0.490   1.848 -0.3813 -0.1504  0.1450
 2655SOL    HW1 8100   2.861   0.462   1.937 -0.9453 -0.2608 -0.0360
 2655SOL    HW2 8101   2.827   0.564   1.830  0.3294  0.4237  0.1914
 2656SOL     OW 8102   3.852   3.515   2.179  0.1719  0.5202  0.1559
 2656SOL    HW1 8103   3.804   3.437   2.151  1.9665  0.0381 -1.8351
 2656SOL    HW2 8104   3.944   3.495   2.160  0.9306  2.3059  1.6227
 2657SOL     OW 8105   0.617   4.801   1.118  0.0162  0.2035  0.6079
 2657SOL    HW1 8106   0.602   4.881   1.069  1.2755 -0.1422 -0.4008
 2657SOL    HW2 8107   0.565   4.735   1.073 -0.2442  0.2463  0.8417
 2658SOL     OW 8108   4.795   4.221   4.933 -0.0782  0.2920  0.5046
 2658SOL    HW1 8109   4.751   4.245   5.014 -1.2453 -1.7326  0.5050
 2658SOL    HW2 8110   4.888   4.235   4.951 -0.4782  2.0711  1.3785
 2659SOL     OW 8111   2.540   3.012   4.894  0.5364 -0.2425  0.7081
 2659SOL    HW1 8112   2.534   3.007   4.799  0.8090 -2.5244  0.7673
 2659SOL    HW2 8113   2.458   3.053   4.921 -0.0938 -0.7058 -0.4312
 2660SOL     OW 8114   2.623   0.043   0.630  0.3887  0.5194  0.3375
 2660SOL    HW1 8115   2.638   0.002   0.544 -0.1865  1.1671 -0.0813
 2660SOL    HW2 8116   2.710   0.067   0.660  0.7586 -1.1019  0.6522
 2661SOL     OW 8117   0.338   2.827   4.853 -0.1885  0.7329 -0.4490
 2661SOL    HW1 8118   0.417   2.773   4.857  0.8244  2.0178 -1.8039
 2661SOL    HW2 8119   0.303   2.828   4.942  1.1656 -0.0895  0.1043
 2662SOL     OW 8120   0.223   1.999   2.504  0.3539 -0.0365  0.6006
 2662SOL    HW1 8121   0.173   1.925   2.539  0.7012 -1.0607 -0.9211
 2662SOL    HW2 8122   0.163   2.041   2.442  0.5262  0.3109  0.6671
 2663SOL     OW 8123   2.176   4.052   0.460  0.4858 -0.2746 -0.1735
 2663SOL    HW1 8124   2.141   4.098   0.384  0.0498  1.2512  0.9111
 2663SOL    HW2 8125   2.100   4.012   0.501  0.6192 -0.4882 -0.1330
 2664SOL     OW 8126   4.816   2.485   4.749 -0.0062  0.0835  0.1579
 2664SOL    HW1 8127   4.799   2.579   4.755 -0.8132 -0.1217  5.0211
 2664SOL    HW2 8128   4.730   2.447   4.728 -0.1751  0.3354  0.3851
 2665SOL     OW 8129   4.222   3.607   1.912 -0.4210 -0.2939  0.1556
 2665SOL    HW1 8130   4.286   3.548   1.873 -0.5029 -1.0691  1.1492
 2665SOL    HW2 8131   4.137   3.571   1.885 -0.5220  1.7127 -2.6168
 2666SOL     OW 8132   3.865   2.541   2.926  0.4568 -0.0588  0.5357
 2666SOL    HW1 8133   3.854   2.584   3.011  1.0124 -0.5229  0.8510
 2666SOL    HW2 8134   3.906   2.457   2.947  2.7105  0.7396 -0.3672
 2667SOL     OW 8135   4.965   3.686   3.509 -0.0631  0.3984  0.0044
 2667SOL    HW1 8136   4.910   3.691   3.587  1.0485 -1.4173  0.9951
 2667SOL    HW2 8137   5.039   3.744   3.528  0.2028 -0.0361  0.3185
 2668SOL     OW 8138   0.955   0.386   2.586 -0.3280  0.3708  0.3078
 2668SOL    HW1 8139   0.961   0.451   2.516  0.1026 -0.4259 -0.4179
 2668SOL    HW2 8140   0.872   0.342   2.571  0.6406 -1.1515 -0.9642
 2669SOL     OW 8141   2.821   3.102   4.535  0.4685  0.2467  0.3093
 2669SOL    HW1 8142   2.838   3.045   4.610  2.1709  1.7069  1.1047
 2669SOL    HW2 8143   2.737   3.143   4.555 -0.5293 -1.5365 -0.0408
 2670SOL     OW 8144   4.313   4.055   1.828 -0.6613  0.5788 -0.0950
 2670SOL    HW1 8145   4.229   4.031   1.789 -0.4768 -2.3415  1.0314
 2670SOL    HW2 8146   4.365   3.974   1.825  0.8245  1.3158  2.3496
 2671SOL     OW 8147   0.238   3.415   4.681  0.1063  0.2179 -0.1530
 2671SOL    HW1 8148   0.286   3.333   4.684 -1.4561 -0.7315  0.0027
 2671SOL    HW2 8149   0.299   3.480   4.717  1.4575 -0.8002 -0.5173
 2672SOL     OW 8150   3.805   3.912   2.442  0.3969 -0.0926  0.0372
 2672SOL    HW1 8151   3.720   3.875   2.415  0.4424  1.7993 -3.1614
 2672SOL    HW2 8152   3.870   3.854   2.401  0.5805  0.2043 -0.0915
 2673SOL     OW 8153   0.268   2.231   3.033  0.0193 -0.3332 -0.1398
 2673SOL    HW1 8154   0.232   2.302   3.085 -2.7587 -1.0291 -0.9499
 2673SOL    HW2 8155   0.240   2.250   2.943 -1.1021 -2.5629 -0.3277
 2674SOL     OW 8156   1.603   4.742   4.517  0.0047  0.0424 -0.5131
 2674SOL    HW1 8157   1.611   4.821   4.572 -1.3827  1.0340 -1.6846
 2674SOL    HW2 8158   1.514   4.711   4.532  0.0563 -0.4551 -1.1960
 2675SOL     OW 8159   4.440   3.864   4.702 -0.5525  0.0458 -0.4404
 2675SOL    HW1 8160   4.416   3.860   4.609 -3.6269  0.6967  0.1899
 2675SOL    HW2 8161   4.369   3.915   4.742  0.3352 -0.7575  2.3717
 2676SOL     OW 8162   2.520   2.192   0.054 -0.7099 -0.1668 -0.2073
 2676SOL    HW1 8163   2.555   2.124   0.110  0.7869  1.6226  1.1557
 2676SOL    HW2 8164   2.595   2.247   0.032 -2.3348  3.7974  2.7456
 2677SOL     OW 8165   2.215   1.872   3.817  0.0976 -0.1105  0.7102
 2677SOL    HW1 8166   2.261   1.846   3.897  2.3402 -0.5971 -0.6278
 2677SOL    HW2 8167   2.133   1.824   3.819  1.4519 -2.5524  1.2887
 2678SOL     OW 8168   1.147   2.721   0.348  0.4421  0.2660  0.0105
 2678SOL    HW1 8169   1.223   2.710   0.406 -0.4940 -1.1615  1.0345
 2678SOL    HW2 8170   1.097   2.640   0.359  0.1972 -0.0565 -2.8135
 2679SOL     OW 8171   1.909   0.562   3.367 -0.6334 -0.0332 -0.2342
 2679SOL    HW1 8172   1.934   0.506   3.293 -3.3640  0.5417 -1.7453
 2679SOL    HW2 8173   1.887   0.501   3.438 -0.0819 -0.7073 -0.6354
 2680SOL     OW 8174   4.787   2.511   0.243 -0.1760  0.7118 -0.7949
 2680SOL    HW1 8175   4.838   2.433   0.267  1.2757  1.8081 -0.2084
 2680SOL    HW2 8176   4.699   2.477   0.228  0.1942 -0.9087  0.3982
 2681SOL     OW 8177   1.432   3.631   4.534 -0.0430 -0.2796 -0.3691
 2681SOL    HW1 8178   1.347   3.587   4.528 -0.3961  0.2556  0.4759
 2681SOL    HW2 8179   1.495   3.567   4.500 -0.4285 -1.8282  1.6301
 2682SOL     OW 8180   3.479   0.272   3.244 -0.4365  0.1414 -0.1473
 2682SOL    HW1 8181   3.400   0.319   3.267 -0.2387 -0.6015  2.3464
 2682SOL    HW2 8182   3.449   0.183   3.225 -0.3164  0.1626 -0.4497
 2683SOL     OW 8183   4.173   3.712   3.175 -0.3570  0.3629  0.0191
 2683SOL    HW1 8184   4.089   3.743   3.140 -0.8760 -1.5728 -0.5639
 2683SOL    HW2 8185   4.223   3.686   3.097  0.0077 -0.3499  0.4805
 2684SOL     OW 8186   2.273  -0.013   2.235  0.0003 -0.0744 -0.1913
 2684SOL    HW1 8187   2.182  -0.022   2.263 -0.4168  0.0103 -1.4559
 2684SOL    HW2 8188   2.281   0.079   2.211  0.7663  0.1969  1.0112
 2685SOL     OW 8189   3.844   4.721   1.915  0.0549 -0.0321  0.7990
 2685SOL    HW1 8190   3.823   4.646   1.970 -0.3632  0.4615  1.3245
 2685SOL    HW2 8191   3.938   4.713   1.901 -0.4411 -2.5838 -2.0685
 2686SOL     OW 8192   3.040   3.688   1.739  0.3372 -0.6964 -0.3456
 2686SOL    HW1 8193   2.985   3.756   1.700  2.2608  0.3732 -1.3600
 2686SOL    HW2 8194   3.078   3.643   1.664  0.3680 -1.8247  0.3320
 2687SOL     OW 8195   3.640   2.449   2.811 -0.2455  0.3983  0.0037
 2687SOL    HW1 8196   3.725   2.471   2.848  0.1795  0.4066 -0.9521
 2687SOL    HW2 8197   3.579   2.458   2.884  0.5907  0.2260  0.7410
 2688SOL     OW 8198   3.222   2.286   2.069 -0.1619 -0.2435 -0.2274
 2688SOL    HW1 8199   3.169   2.209   2.045 -0.3854  0.1805 -1.1477
 2688SOL    HW2 8200   3.160   2.359   2.065 -1.0449 -0.3779  4.5564
 2689SOL     OW 8201   3.770   1.598   2.070 -0.3925 -0.5600 -0.2571
 2689SOL    HW1 8202   3.816   1.598   1.986  0.9912 -1.7035  0.4515
 2689SOL    HW2 8203   3.831   1.641   2.130 -0.5378 -1.4558  0.5588
 2690SOL     OW 8204   0.853   0.563   0.824  0.2231 -0.3011 -0.1165
 2690SOL    HW1 8205   0.794   0.500   0.782 -0.4220  0.4088 -0.2895
 2690SOL    HW2 8206   0.796   0.616   0.880  0.8151 -0.0926  0.3013
 2691SOL     OW 8207   1.789   2.416   3.741  0.0347 -0.2860  0.0872
 2691SOL    HW1 8208   1.719   2.410   3.806  0.1128 -2.0046  0.0585
 2691SOL    HW2 8209   1.825   2.504   3.752 -1.9569  0.5644  0.2642
 2692SOL     OW 8210   0.929   2.305   3.928  0.0701  0.9575  0.4195
 2692SOL    HW1 8211   0.944   2.226   3.877 -2.1917  1.1367 -0.6198
 2692SOL    HW2 8212   1.012   2.353   3.923  1.0145 -0.6564 -0.1118
 2693SOL     OW 8213   4.065   1.989   3.563  0.0761  0.2367 -0.0216
 2693SOL    HW1 8214   4.079   2.026   3.476 -0.7571 -0.8752 -0.6574
 2693SOL    HW2 8215   4.025   2.059   3.613 -0.3581  0.5808 -0.8417
 2694SOL     OW 8216   4.865   1.691   2.132 -0.2085 -0.3829  0.3305
 2694SOL    HW1 8217   4.911   1.616   2.094  1.4439  0.1687  1.1534
 2694SOL    HW2 8218   4.832   1.660   2.216  1.1535  0.0040  1.0271
 2695SOL     OW 8219   1.279   4.479   0.328 -0.3804 -0.8595  0.2926
 2695SOL    HW1 8220   1.193   4.455   0.363 -0.4117 -2.0016 -0.5370
 2695SOL    HW2 8221   1.315   4.397   0.294  1.0343 -0.3908  0.6010
 2696SOL     OW 8222   2.518   3.423   2.924 -0.1404  0.0116 -0.5692
 2696SOL    HW1 8223   2.579   3.375   2.868  0.9405  0.4261  0.2245
 2696SOL    HW2 8224   2.475   3.485   2.864 -1.1398 -1.5034 -1.4883
 2697SOL     OW 8225   0.085   2.979   3.416 -0.0759 -0.4300  0.1301
 2697SOL    HW1 8226   0.094   3.046   3.483 -0.1365  0.1800 -0.4650
 2697SOL    HW2 8227   0.164   2.925   3.425  0.2069  0.0092  0.2916
 2698SOL     OW 8228   0.407   1.449   2.586 -0.6496 -0.3685 -0.3836
 2698SOL    HW1 8229   0.344   1.503   2.634 -2.4867  1.4543 -4.2863
 2698SOL    HW2 8230   0.375   1.360   2.597 -1.6919  0.1205  0.7553
 2699SOL     OW 8231   0.039   1.337   4.048  0.0682 -0.2740  0.6867
 2699SOL    HW1 8232   0.064   1.251   4.083 -1.3338 -0.8339  0.3903
 2699SOL    HW2 8233  -0.024   1.317   3.979 -0.2528  1.0002  0.5924
 2700SOL     OW 8234   2.969   3.403   4.765 -0.0809  0.3843 -0.2705
 2700SOL    HW1 8235   2.884   3.394   4.809 -0.1529  1.2362 -0.2273
 2700SOL    HW2 8236   3.026   3.441   4.831  0.4591 -0.5556 -0.1711
 2701SOL     OW 8237   1.475   3.118   0.317 -0.1092  0.1957 -0.2432
 2701SOL    HW1 8238   1.526   3.036   0.318 -1.9642 -1.0272  1.0918
 2701SOL    HW2 8239   1.466   3.139   0.224  0.2315 -1.2517 -0.6333
 2702SOL     OW 8240   3.614   0.147   2.553 -0.6102  0.1772  0.0425
 2702SOL    HW1 8241   3.624   0.179   2.642  3.0480  1.5736 -0.6771
 2702SOL    HW2 8242   3.652   0.059   2.555  2.3572  1.3228 -0.5621
 2703SOL     OW 8243   4.034   3.956   4.892  0.8569  0.3033 -0.1695
 2703SOL    HW1 8244   4.126   3.960   4.920  0.8320  1.6852 -0.2196
 2703SOL    HW2 8245   3.997   4.039   4.921 -0.3548 -0.1774 -0.2884
 2704SOL     OW 8246   1.260   0.074   2.673  0.2029  0.2272 -0.1742
 2704SOL    HW1 8247   1.236  -0.018   2.659  0.7293  0.2550 -1.4725
 2704SOL    HW2 8248   1.325   0.072   2.743 -0.9311 -0.2177  0.8799
 2705SOL     OW 8249   1.043   3.572   2.308 -0.1726  0.1913  0.2107
 2705SOL    HW1 8250   1.062   3.663   2.286 -1.6726  0.9810  1.9569
 2705SOL    HW2 8251   1.098   3.521   2.248  3.1683  2.2049  1.3036
 2706SOL     OW 8252   3.697   2.716   0.376 -0.2089  0.2146  0.1393
 2706SOL    HW1 8253   3.635   2.763   0.433 -0.0166  1.6644 -0.7898
 2706SOL    HW2 8254   3.783   2.745   0.406 -0.0922  0.5517 -0.4986
 2707SOL     OW 8255   0.148   1.262   2.914  0.1333  0.7006 -0.4167
 2707SOL    HW1 8256   0.206   1.239   2.841  1.2964 -0.9970  0.9689
 2707SOL    HW2 8257   0.148   1.358   2.915  0.6554  0.7509 -2.1801
 2708SOL     OW 8258   0.431   2.629   0.681 -0.1330 -0.7193  0.7641
 2708SOL    HW1 8259   0.364   2.634   0.749  0.4011 -0.5359  1.2795
 2708SOL    HW2 8260   0.389   2.581   0.609 -0.2820 -2.0375  1.7015
 2709SOL     OW 8261   3.863   3.013   0.324 -0.3080  0.2161 -0.0463
 2709SOL    HW1 8262   3.883   2.920   0.318 -0.5446  0.0314  1.5866
 2709SOL    HW2 8263   3.892   3.050   0.241  0.2880 -1.2219 -0.4925
 2710SOL     OW 8264   2.036   3.510   1.136 -0.2675  0.0957  0.6451
 2710SOL    HW1 8265   1.956   3.547   1.098 -1.1802  1.7506  3.8346
 2710SOL    HW2 8266   2.106   3.567   1.102 -0.7447  0.2411 -0.1420
 2711SOL     OW 8267   0.554   0.304   2.738  0.2064 -0.1314 -0.4806
 2711SOL    HW1 8268   0.487   0.366   2.767  1.5440  0.9073  0.4987
 2711SOL    HW2 8269   0.508   0.246   2.678 -1.6344  0.3786  0.3636
 2712SOL     OW 8270   3.643   2.919  -0.007  0.5856  0.1466  0.1726
 2712SOL    HW1 8271   3.704   2.852  -0.039  1.3941  1.5635 -1.3992
 2712SOL    HW2 8272   3.695   2.973   0.053  0.6546  0.8209 -0.4769
 2713SOL     OW 8273   1.378   0.500   4.077  0.3057 -0.2349  0.4109
 2713SOL    HW1 8274   1.359   0.550   4.156 -2.2804  1.2920 -1.0406
 2713SOL    HW2 8275   1.350   0.411   4.099  1.3717 -0.2665  1.7747
 2714SOL     OW 8276   0.742   1.812   0.775  0.3219 -0.4190  0.1749
 2714SOL    HW1 8277   0.746   1.730   0.727  1.7734 -0.9273  1.1031
 2714SOL    HW2 8278   0.814   1.865   0.739  0.4732 -0.2298  0.7398
 2715SOL     OW 8279   1.734   3.869   2.513 -0.4483 -0.5620  0.1685
 2715SOL    HW1 8280   1.830   3.879   2.513 -0.5315  0.8674 -1.5479
 2715SOL    HW2 8281   1.717   3.803   2.579  1.7670 -1.1102  0.2921
 2716SOL     OW 8282   1.537   2.478   4.569 -0.6623  0.1246 -1.0310
 2716SOL    HW1 8283   1.512   2.557   4.522 -3.6404  1.6715  2.7043
 2716SOL    HW2 8284   1.472   2.413   4.543 -1.5227  0.5983 -0.1404
 2717SOL     OW 8285   2.427   2.774   1.472 -0.3215 -0.2231  0.2989
 2717SOL    HW1 8286   2.363   2.720   1.426  0.0247  0.2064 -0.7109
 2717SOL    HW2 8287   2.390   2.863   1.469 -0.4130 -0.2273  1.0738
 2718SOL     OW 8288   4.986   2.422   1.817  0.2673  0.5748  0.3715
 2718SOL    HW1 8289   5.034   2.505   1.815 -1.1688  1.4756  1.5210
 2718SOL    HW2 8290   5.051   2.357   1.791  1.0937  2.1867 -1.9005
 2719SOL     OW 8291   0.622   0.318   3.374  0.5369 -0.6415 -0.0654
 2719SOL    HW1 8292   0.713   0.303   3.401  0.5512 -0.1641  0.1773
 2719SOL    HW2 8293   0.618   0.412   3.356  0.5535 -0.9454 -1.8532
 2720SOL     OW 8294   2.128   2.322   4.275  0.1384 -0.2450 -0.2296
 2720SOL    HW1 8295   2.121   2.266   4.352 -0.7206  0.4044  0.1862
 2720SOL    HW2 8296   2.103   2.266   4.202 -0.1755 -0.5509  0.1105
 2721SOL     OW 8297   4.674   1.523   3.797  0.2593  0.5390  0.3311
 2721SOL    HW1 8298   4.734   1.533   3.871  0.6362  0.0630  0.0947
 2721SOL    HW2 8299   4.728   1.544   3.720  0.1533 -0.0128  0.1057
 2722SOL     OW 8300   0.107   0.208   4.644 -0.1892 -0.8494 -0.0835
 2722SOL    HW1 8301   0.072   0.217   4.556 -1.2986 -0.5847  0.3647
 2722SOL    HW2 8302   0.176   0.142   4.636  0.2050 -0.3263 -1.2642
 2723SOL     OW 8303   2.051   1.603   2.270 -0.0269  0.5507  0.0200
 2723SOL    HW1 8304   2.124   1.589   2.330  0.0946 -2.5976 -0.6920
 2723SOL    HW2 8305   1.976   1.563   2.314 -0.2804 -0.3711 -1.1848
 2724SOL     OW 8306   2.338   1.867   1.054  0.3511 -0.5611 -0.8102
 2724SOL    HW1 8307   2.343   1.848   1.148  2.7895  1.3703 -0.4700
 2724SOL    HW2 8308   2.399   1.804   1.014  0.6914 -0.1898 -0.8777
 2725SOL     OW 8309   0.536   3.753   2.885 -0.1902 -0.3224  0.6650
 2725SOL    HW1 8310   0.487   3.831   2.911  1.0391  0.6647  0.0916
 2725SOL    HW2 8311   0.473   3.699   2.838 -1.2658 -0.0702  1.7646
 2726SOL     OW 8312   4.894   0.052   0.258  0.1104  0.0503  0.2519
 2726SOL    HW1 8313   4.941   0.087   0.334  0.3147 -3.1945  1.8275
 2726SOL    HW2 8314   4.820   0.005   0.295 -0.3340 -0.8385 -1.6346
 2727SOL     OW 8315   4.498   4.560   4.208 -0.1410 -0.3449 -0.5186
 2727SOL    HW1 8316   4.501   4.526   4.119  0.0025 -0.9553 -0.2829
 2727SOL    HW2 8317   4.527   4.487   4.263 -1.2634 -0.3290  0.1275
 2728SOL     OW 8318   0.181   3.804   4.810 -0.2397 -0.2420  0.7519
 2728SOL    HW1 8319   0.223   3.857   4.878 -0.7595 -0.0737  0.9422
 2728SOL    HW2 8320   0.097   3.778   4.847  0.0616 -1.3235  0.7091
 2729SOL     OW 8321   0.243   2.310   2.781 -0.3103 -0.1169  0.1203
 2729SOL    HW1 8322   0.174   2.321   2.716 -1.1617 -1.9039  0.6414
 2729SOL    HW2 8323   0.324   2.315   2.731 -0.8017  1.6737 -0.5620
 2730SOL     OW 8324   3.342   2.025   1.895  0.6309 -0.0563  0.5852
 2730SOL    HW1 8325   3.322   1.936   1.925  3.9043 -0.7357  1.1925
 2730SOL    HW2 8326   3.320   2.082   1.968 -1.2048 -0.3463  0.3034
 2731SOL     OW 8327   2.731   4.049   1.769  0.5018  0.0117  0.4913
 2731SOL    HW1 8328   2.710   3.988   1.698  0.9826 -1.2270  1.3663
 2731SOL    HW2 8329   2.736   4.135   1.726  1.1886 -0.7447 -1.0521
 2732SOL     OW 8330   4.387   4.332   4.355 -0.1054  0.2879 -0.0470
 2732SOL    HW1 8331   4.379   4.260   4.417 -0.7514 -0.6185 -1.1295
 2732SOL    HW2 8332   4.297   4.348   4.325  0.4225 -1.2796 -2.8630
 2733SOL     OW 8333   2.727   0.987   1.583 -0.2939  1.0111  0.2387
 2733SOL    HW1 8334   2.811   0.951   1.556 -0.0611  1.8042 -0.1507
 2733SOL    HW2 8335   2.748   1.073   1.619 -0.5767 -0.0977  3.2674
 2734SOL     OW 8336   4.717   1.291   0.356  0.6551 -0.6320  0.2784
 2734SOL    HW1 8337   4.695   1.380   0.327  2.4036 -0.4420 -0.6400
 2734SOL    HW2 8338   4.752   1.303   0.445  1.2096 -0.3305  0.0279
 2735SOL     OW 8339   1.734   3.285   3.680 -0.6516  0.1311 -0.8028
 2735SOL    HW1 8340   1.702   3.222   3.615  0.6760  0.0818 -1.4465
 2735SOL    HW2 8341   1.814   3.320   3.641  2.6318 -2.8862  2.4473
 2736SOL     OW 8342   3.882   3.493   0.048  0.4863  0.4531  0.7517
 2736SOL    HW1 8343   3.891   3.563  -0.017  1.3116  0.7322  1.1539
 2736SOL    HW2 8344   3.878   3.413  -0.004  1.2024  0.6701  0.3485
 2737SOL     OW 8345   1.258   3.492   4.946 -0.1110  0.4382 -1.1920
 2737SOL    HW1 8346   1.226   3.582   4.942  1.2757  0.9177 -1.8815
 2737SOL    HW2 8347   1.346   3.495   4.910  0.3325 -1.0363 -0.3442
 2738SOL     OW 8348   1.973   2.400   0.370  0.2293 -0.5878 -0.1044
 2738SOL    HW1 8349   2.028   2.424   0.445 -0.7938  0.8324  0.2312
 2738SOL    HW2 8350   1.963   2.305   0.377  2.1773 -0.8205  0.1218
 2739SOL     OW 8351   4.212   1.236   0.757  0.4000 -0.0012 -0.7022
 2739SOL    HW1 8352   4.249   1.230   0.669  0.5802  2.7953 -0.8993
 2739SOL    HW2 8353   4.133   1.289   0.745 -0.2503 -0.6202  0.6682
 2740SOL     OW 8354   0.687   4.727   4.739 -1.0931  0.2536 -0.0123
 2740SOL    HW1 8355   0.750   4.795   4.765 -0.5494 -0.7422  1.3788
 2740SOL    HW2 8356   0.606   4.752   4.782 -0.2918 -1.1851  2.4901
 2741SOL     OW 8357   2.933   2.723   1.911  0.2831 -0.3579 -0.1053
 2741SOL    HW1 8358   2.894   2.691   1.830  0.6170  0.1763 -0.4850
 2741SOL    HW2 8359   3.016   2.763   1.884  0.1545  0.2940  0.4329
 2742SOL     OW 8360   1.210   0.828   4.030 -0.4810  0.0050 -0.3167
 2742SOL    HW1 8361   1.241   0.772   4.101  1.8527  0.6432 -0.7501
 2742SOL    HW2 8362   1.190   0.912   4.071  0.0430  0.1170 -0.2938
 2743SOL     OW 8363   1.457   2.708   4.440 -0.1025 -0.0142  0.1687
 2743SOL    HW1 8364   1.511   2.779   4.404 -0.8590  0.7084  0.4277
 2743SOL    HW2 8365   1.423   2.743   4.522 -0.3276 -0.7590  0.4029
 2744SOL     OW 8366   2.087   3.593   2.956  0.2350  0.2305  0.8120
 2744SOL    HW1 8367   2.108   3.610   3.048 -1.1805 -0.2591  1.2457
 2744SOL    HW2 8368   2.008   3.644   2.940 -0.2557 -0.6974  0.2301
 2745SOL     OW 8369   0.918   4.985   0.649  0.3273 -0.1371  0.8270
 2745SOL    HW1 8370   0.934   5.078   0.666  0.1859 -0.0091  0.2850
 2745SOL    HW2 8371   0.885   4.951   0.732 -0.4882  0.4969  0.7758
 2746SOL     OW 8372   3.807   3.671   4.002  0.6512 -0.7850 -0.1082
 2746SOL    HW1 8373   3.745   3.623   3.946 -0.3745  0.1551  0.1847
 2746SOL    HW2 8374   3.873   3.705   3.942  0.2361 -0.8184 -0.5867
 2747SOL     OW 8375   4.917   1.523   3.157 -0.6338 -0.2848  0.0942
 2747SOL    HW1 8376   4.892   1.445   3.107 -1.4980 -0.6059  0.9960
 2747SOL    HW2 8377   4.895   1.596   3.100 -0.3029 -0.6791 -0.5540
 2748SOL     OW 8378   1.196   2.179   1.832 -0.2171  0.1046  0.0219
 2748SOL    HW1 8379   1.259   2.247   1.807 -1.5692  1.4810  0.2185
 2748SOL    HW2 8380   1.174   2.136   1.749  0.4061  0.1097 -0.1527
 2749SOL     OW 8381   3.735   2.092   4.794 -0.6747 -0.0274  0.2454
 2749SOL    HW1 8382   3.659   2.055   4.750  0.4768 -1.1555 -0.8646
 2749SOL    HW2 8383   3.762   2.026   4.858  0.2985 -0.3752 -0.4847
 2750SOL     OW 8384   2.706   0.107   2.038  0.0078  0.2323 -0.4522
 2750SOL    HW1 8385   2.657   0.149   2.109 -0.0202  1.8326 -1.3662
 2750SOL    HW2 8386   2.785   0.074   2.080  0.3932  1.8892  0.2115
 2751SOL     OW 8387   3.070   4.180   4.310  0.2331 -0.7733 -0.5219
 2751SOL    HW1 8388   3.020   4.153   4.233  0.4382 -2.4402 -0.1310
 2751SOL    HW2 8389   3.118   4.100   4.336  0.9865  0.0380  0.6987
 2752SOL     OW 8390   3.875   0.916   2.529  0.1339  0.2172  0.3229
 2752SOL    HW1 8391   3.961   0.944   2.499 -0.1750  0.6123 -0.2068
 2752SOL    HW2 8392   3.868   0.951   2.618 -0.5760  2.6299 -0.5911
 2753SOL     OW 8393   1.568   0.772   0.752 -0.6970 -0.7619 -0.0518
 2753SOL    HW1 8394   1.599   0.682   0.761 -0.4375 -0.7731 -0.9557
 2753SOL    HW2 8395   1.609   0.804   0.671 -1.7222 -0.2176 -0.3743
 2754SOL     OW 8396   3.080   2.344   2.809 -0.0579 -0.4244  0.1649
 2754SOL    HW1 8397   3.111   2.361   2.898 -1.9481  1.9287  0.4904
 2754SOL    HW2 8398   2.999   2.295   2.821 -0.8449  0.7493 -0.1470
 2755SOL     OW 8399   0.198   3.604   0.770 -0.5125 -0.5828 -0.0769
 2755SOL    HW1 8400   0.244   3.548   0.833 -1.8597 -0.2014  1.2959
 2755SOL    HW2 8401   0.265   3.668   0.743  0.1642 -0.8969  0.7830
 2756SOL     OW 8402   4.828   1.531   4.661 -0.2777  0.6860 -0.4168
 2756SOL    HW1 8403   4.860   1.502   4.576 -0.6799 -2.8814  0.5045
 2756SOL    HW2 8404   4.844   1.458   4.720 -0.4427  2.8254  2.5475
 2757SOL     OW 8405   1.648   1.380   3.357 -0.3118  0.1926 -0.4693
 2757SOL    HW1 8406   1.658   1.342   3.270  1.4947 -0.0753 -0.1807
 2757SOL    HW2 8407   1.626   1.306   3.413  2.1109 -0.3218 -0.1030
 2758SOL     OW 8408   1.805   4.179   0.446  0.2331 -0.3890  1.2126
 2758SOL    HW1 8409   1.864   4.204   0.375 -1.0708 -2.0737 -0.5552
 2758SOL    HW2 8410   1.859   4.186   0.525  1.7579  1.4357  0.1008
 2759SOL     OW 8411   3.839   1.319   3.677  1.0429 -0.0315 -0.1516
 2759SOL    HW1 8412   3.759   1.338   3.726  1.6446  1.8390  0.1934
 2759SOL    HW2 8413   3.809   1.310   3.586 -0.0510 -3.3659  0.3794
 2760SOL     OW 8414   0.753   0.300   1.024 -0.1441  0.3222  0.2997
 2760SOL    HW1 8415   0.663   0.332   1.025  0.2720  1.5602  0.7565
 2760SOL    HW2 8416   0.745   0.206   1.009 -1.5228  0.3474  0.7273
 2761SOL     OW 8417   2.481   2.689   3.202  0.0979 -0.4885 -0.2158
 2761SOL    HW1 8418   2.449   2.599   3.204 -1.7190  0.1163  0.1743
 2761SOL    HW2 8419   2.495   2.712   3.294  0.2665 -0.2730 -0.2932
 2762SOL     OW 8420   4.036   0.342   3.342  0.5953 -0.9719  0.3537
 2762SOL    HW1 8421   4.009   0.381   3.426 -0.0593  0.0065 -0.2810
 2762SOL    HW2 8422   4.055   0.251   3.363  1.3304 -0.5317  1.7415
 2763SOL     OW 8423   4.950   1.907   3.360  0.0507 -0.5543 -0.6546
 2763SOL    HW1 8424   4.875   1.910   3.301 -0.7668  1.4717  0.3887
 2763SOL    HW2 8425   4.993   1.992   3.348  0.8659 -0.7970  0.4075
 2764SOL     OW 8426  -0.002   4.261   2.349 -0.3109  0.0434 -0.2338
 2764SOL    HW1 8427   0.088   4.230   2.350 -0.2789  0.0850 -1.1253
 2764SOL    HW2 8428  -0.009   4.311   2.268 -0.5486  1.8142  0.8416
 2765SOL     OW 8429   3.482   3.801   0.197  0.0041 -0.0706  0.0431
 2765SOL    HW1 8430   3.401   3.758   0.173  0.3219 -1.4428  1.2326
 2765SOL    HW2 8431   3.527   3.737   0.252  1.3475  1.1141  0.3850
 2766SOL     OW 8432   2.250   4.943   1.604 -0.5754 -0.0597  0.9448
 2766SOL    HW1 8433   2.179   5.004   1.587  0.2600  1.1532  1.6399
 2766SOL    HW2 8434   2.302   4.943   1.523 -0.6287  0.0663  0.9118
 2767SOL     OW 8435   4.808   0.787   2.218 -0.4942 -0.3716 -0.0918
 2767SOL    HW1 8436   4.789   0.706   2.265  1.5794  0.0650  1.6903
 2767SOL    HW2 8437   4.815   0.853   2.287 -0.1900  0.9288 -1.3133
 2768SOL     OW 8438   3.414   2.146   3.762  0.4669  0.5410 -0.4849
 2768SOL    HW1 8439   3.442   2.084   3.829  0.8716  0.9110 -0.3044
 2768SOL    HW2 8440   3.330   2.180   3.795 -0.9649 -1.6083 -1.7063
 2769SOL     OW 8441   0.893   1.247   1.476  0.0514 -0.8102 -0.7502
 2769SOL    HW1 8442   0.980   1.247   1.516 -0.0673 -2.5870 -0.3860
 2769SOL    HW2 8443   0.845   1.179   1.524 -2.7206  2.3811  1.4028
 2770SOL     OW 8444   4.273   0.011   1.857  0.3387 -0.0738  0.4763
 2770SOL    HW1 8445   4.278   0.106   1.870 -1.5114  0.5174 -2.1865
 2770SOL    HW2 8446   4.333  -0.006   1.784  0.0726 -0.8128  0.4240
 2771SOL     OW 8447   1.865   1.660   2.031 -0.2871 -0.4441  0.3369
 2771SOL    HW1 8448   1.826   1.673   2.117 -0.2253 -2.8464  0.8182
 2771SOL    HW2 8449   1.852   1.566   2.013  0.3781 -0.1757 -1.9318
 2772SOL     OW 8450   1.586   4.891   3.818  0.7664 -0.3218  0.4440
 2772SOL    HW1 8451   1.541   4.973   3.796  2.2118  0.4886  0.3953
 2772SOL    HW2 8452   1.547   4.864   3.901 -0.7530 -0.3828 -0.2588
 2773SOL     OW 8453   0.237   2.479   3.165  0.1675  0.3405 -0.4120
 2773SOL    HW1 8454   0.159   2.441   3.204 -0.1453 -0.1442 -1.4604
 2773SOL    HW2 8455   0.263   2.549   3.225 -1.1732  0.6271 -0.1407
 2774SOL     OW 8456   3.902   4.805   1.321  0.1074  0.7325  0.5651
 2774SOL    HW1 8457   3.829   4.852   1.362  0.2867  0.2149  1.5019
 2774SOL    HW2 8458   3.913   4.726   1.374 -1.4984 -1.5025 -2.1308
 2775SOL     OW 8459   3.562   2.720   2.474  0.0739 -0.3601  0.1220
 2775SOL    HW1 8460   3.558   2.633   2.435  0.2946 -0.2046 -0.2525
 2775SOL    HW2 8461   3.655   2.743   2.473 -0.1850  0.7618 -1.7725
 2776SOL     OW 8462   3.764  -0.024   1.560  0.5517  0.6953 -0.1153
 2776SOL    HW1 8463   3.852  -0.035   1.597  0.9013  0.0992 -1.0776
 2776SOL    HW2 8464   3.750   0.070   1.559  1.6392  0.8685 -0.9398
 2777SOL     OW 8465   0.222   4.485   4.608 -0.5812  0.9183  0.0479
 2777SOL    HW1 8466   0.220   4.561   4.550  0.2624  1.7746  1.0803
 2777SOL    HW2 8467   0.227   4.410   4.550 -0.9624  1.6839 -0.9949
 2778SOL     OW 8468   3.640   0.287   2.291 -0.1205 -0.3312 -0.1844
 2778SOL    HW1 8469   3.616   0.258   2.379 -0.8537 -1.4314 -0.7220
 2778SOL    HW2 8470   3.634   0.208   2.237  2.3269 -0.1294 -0.8685
 2779SOL     OW 8471   4.688   2.540   3.337 -0.4876 -0.0384  0.8012
 2779SOL    HW1 8472   4.663   2.613   3.280 -2.4656 -1.3999 -0.1962
 2779SOL    HW2 8473   4.606   2.514   3.379  0.5226 -0.5659  2.5225
 2780SOL     OW 8474   3.130   3.521   4.964  0.6887  0.4772 -0.5368
 2780SOL    HW1 8475   3.183   3.600   4.963  0.8104  0.4043 -1.9496
 2780SOL    HW2 8476   3.193   3.450   4.980  0.9104  0.4743 -1.3680
 2781SOL     OW 8477   1.476   5.017   3.212 -0.2369 -0.0245  0.3871
 2781SOL    HW1 8478   1.425   4.968   3.148  0.3859 -2.1321  1.4129
 2781SOL    HW2 8479   1.539   5.067   3.160 -1.5837  0.5391 -0.7419
 2782SOL     OW 8480   0.052   3.186   3.594 -0.3829 -0.0123 -0.1175
 2782SOL    HW1 8481  -0.024   3.175   3.652 -0.7310 -0.5886 -0.6726
 2782SOL    HW2 8482   0.099   3.260   3.632 -1.4235  0.6062  0.0222
 2783SOL     OW 8483   0.206   0.850   0.994 -0.2749  0.0322  0.0061
 2783SOL    HW1 8484   0.113   0.834   0.982 -0.0969 -0.2647 -1.1608
 2783SOL    HW2 8485   0.213   0.946   0.999 -0.6203  0.0677 -0.1525
 2784SOL     OW 8486   3.882   4.032   1.170 -0.3383 -0.0061  0.1599
 2784SOL    HW1 8487   3.956   4.034   1.232  0.1699  2.0463 -0.4523
 2784SOL    HW2 8488   3.841   3.947   1.186  1.3613 -0.6619  1.4497
 2785SOL     OW 8489   2.043   2.986   0.065  0.3715 -0.3363 -0.4677
 2785SOL    HW1 8490   2.038   2.908   0.121  0.3134 -0.3314 -0.4669
 2785SOL    HW2 8491   1.952   3.013   0.053  0.2356 -1.4140 -2.0977
 2786SOL     OW 8492   3.984   4.512   0.034  0.5035  0.0029 -0.2306
 2786SOL    HW1 8493   4.028   4.595   0.017  1.6561 -0.1289  1.8364
 2786SOL    HW2 8494   3.904   4.536   0.081 -0.3649  0.0664 -1.6944
 2787SOL     OW 8495   1.638   2.494   0.509 -0.0906  0.3010 -0.3449
 2787SOL    HW1 8496   1.558   2.541   0.483  0.5019  0.7448 -1.4334
 2787SOL    HW2 8497   1.672   2.458   0.427  1.8261  1.7010 -0.2176
 2788SOL     OW 8498   3.541   2.148   1.185  0.1782  0.4635  0.1378
 2788SOL    HW1 8499   3.540   2.088   1.110 -0.0377  0.1896  0.3579
 2788SOL    HW2 8500   3.595   2.103   1.250 -0.8986 -0.0130  0.7224
 2789SOL     OW 8501   1.962   3.853   2.906 -0.4738 -0.3251  0.1057
 2789SOL    HW1 8502   2.015   3.884   2.980  0.4621 -1.0997 -0.2141
 2789SOL    HW2 8503   1.872   3.859   2.937 -0.0661 -1.6140  1.7237
 2790SOL     OW 8504   2.183   2.791   4.863  0.1377  0.0523  0.6001
 2790SOL    HW1 8505   2.247   2.836   4.919  0.6985 -1.9925  1.7294
 2790SOL    HW2 8506   2.099   2.810   4.904  0.2602  0.7455  0.5539
 2791SOL     OW 8507   2.838   3.427   3.741 -0.3085  0.2402 -0.2495
 2791SOL    HW1 8508   2.856   3.418   3.648 -1.7588  1.5874 -0.7137
 2791SOL    HW2 8509   2.844   3.522   3.757  0.5774 -0.0275  1.1866
 2792SOL     OW 8510   4.251   0.215   4.768 -0.1239  0.1883 -0.6586
 2792SOL    HW1 8511   4.245   0.246   4.859  1.0633  0.7742 -0.7630
 2792SOL    HW2 8512   4.225   0.290   4.715  0.4867  0.2669 -0.8471
 2793SOL     OW 8513   0.078   2.703   0.244  0.0340 -0.2069 -1.2132
 2793SOL    HW1 8514   0.125   2.628   0.207 -0.5192 -0.7988 -0.7326
 2793SOL    HW2 8515   0.132   2.731   0.318  0.9730  0.7756 -2.2069
 2794SOL     OW 8516   3.059   0.682   0.647  0.4597 -0.2439 -0.1766
 2794SOL    HW1 8517   3.021   0.737   0.578  0.5235 -0.0975 -0.0966
 2794SOL    HW2 8518   3.133   0.734   0.680  0.0740 -0.0520  0.4028
 2795SOL     OW 8519   4.708   2.218   0.087  0.3383 -0.4970  0.2430
 2795SOL    HW1 8520   4.644   2.269   0.138  1.9692 -0.1302  2.0538
 2795SOL    HW2 8521   4.701   2.129   0.122 -0.7108 -1.0017 -1.1436
 2796SOL     OW 8522   1.562   3.928   1.710  0.0954 -0.0446 -0.0560
 2796SOL    HW1 8523   1.528   3.869   1.642  2.3483  0.0856 -1.3880
 2796SOL    HW2 8524   1.656   3.933   1.693  0.4623  1.3935  2.0354
 2797SOL     OW 8525   3.382   2.576   3.605  0.2405 -0.3860 -0.0465
 2797SOL    HW1 8526   3.391   2.490   3.563 -1.8558 -0.2077 -0.9822
 2797SOL    HW2 8527   3.409   2.639   3.537 -1.0846 -0.1937 -0.4102
 2798SOL     OW 8528   2.031   2.953   0.817 -0.9503 -0.0012 -0.5935
 2798SOL    HW1 8529   1.947   2.960   0.861 -0.5751  2.7449 -0.1316
 2798SOL    HW2 8530   2.094   2.934   0.887 -0.4255  3.8789  0.2001
 2799SOL     OW 8531   2.161   2.198   1.499 -0.0517  0.5916  0.3317
 2799SOL    HW1 8532   2.115   2.212   1.582 -1.2982  3.1560 -0.6880
 2799SOL    HW2 8533   2.192   2.285   1.474  1.2517 -0.3099 -1.3819
 2800SOL     OW 8534   1.356   3.265   1.845 -0.7127 -0.0582 -0.1467
 2800SOL    HW1 8535   1.438   3.278   1.797 -0.3598  2.9198  1.0129
 2800SOL    HW2 8536   1.381   3.274   1.938 -2.3522  1.4364  0.2082
 2801SOL     OW 8537   0.717   4.669   0.177  0.2597  0.4009 -0.1773
 2801SOL    HW1 8538   0.773   4.680   0.253  1.2756  2.6376 -1.1577
 2801SOL    HW2 8539   0.778   4.649   0.105 -0.8298 -4.2424 -0.1184
 2802SOL     OW 8540   0.891   3.011   3.332  0.3927 -0.2169  0.1701
 2802SOL    HW1 8541   0.931   3.040   3.414  2.2315 -0.8112 -0.4592
 2802SOL    HW2 8542   0.930   2.926   3.315  2.2843  1.0716 -2.7054
 2803SOL     OW 8543   4.451   2.747   0.800  0.5320  0.6249  0.3466
 2803SOL    HW1 8544   4.528   2.698   0.830  0.1280  0.2092  0.7127
 2803SOL    HW2 8545   4.461   2.833   0.841 -0.1937 -0.0447  2.0176
 2804SOL     OW 8546   1.889   0.474   2.627  0.8266 -0.4468 -0.6396
 2804SOL    HW1 8547   1.900   0.425   2.545  0.4067 -0.9962 -0.3764
 2804SOL    HW2 8548   1.804   0.518   2.618  1.2180  0.2558 -0.8868
 2805SOL     OW 8549   3.025   2.784   1.473  0.3130 -0.7651  0.1020
 2805SOL    HW1 8550   3.036   2.874   1.504  1.7693 -0.1429 -1.9404
 2805SOL    HW2 8551   2.947   2.752   1.517  0.2515  1.2005  1.5433
 2806SOL     OW 8552   1.200   3.517   4.363  0.0042  0.4904 -0.6607
 2806SOL    HW1 8553   1.110   3.545   4.382  0.0771  0.5630 -0.4150
 2806SOL    HW2 8554   1.229   3.577   4.294  0.2342  1.1801  0.0141
 2807SOL     OW 8555   0.452   3.323   4.193 -0.0376 -0.4684 -0.5095
 2807SOL    HW1 8556   0.532   3.281   4.163  0.2889 -0.6302  0.5525
 2807SOL    HW2 8557   0.405   3.346   4.113  1.0555 -0.3906 -1.1447
 2808SOL     OW 8558   0.237   2.776   1.194  0.3660  0.2477 -0.0859
 2808SOL    HW1 8559   0.292   2.829   1.135  1.4748  0.0237  0.7124
 2808SOL    HW2 8560   0.288   2.696   1.209 -0.0921  0.1183  0.8410
 2809SOL     OW 8561   0.566   1.343   0.939  0.0289 -0.4116 -0.2716
 2809SOL    HW1 8562   0.614   1.384   0.866  1.1983 -0.5865  0.3693
 2809SOL    HW2 8563   0.488   1.398   0.950 -0.0154 -0.2115 -1.4543
 2810SOL     OW 8564   3.405   2.597   2.174  0.0522  0.0822  0.4179
 2810SOL    HW1 8565   3.341   2.588   2.245  0.7709  1.4902  1.2947
 2810SOL    HW2 8566   3.361   2.559   2.097 -1.4723  0.1900  1.1939
 2811SOL     OW 8567   4.128   2.693   2.607 -0.1430  0.5563 -0.2120
 2811SOL    HW1 8568   4.083   2.668   2.687  0.7219 -1.0044 -0.1709
 2811SOL    HW2 8569   4.204   2.743   2.637 -0.9095  1.7772 -0.2043
 2812SOL     OW 8570   3.427   2.163   2.207  0.7321 -0.3947  0.1052
 2812SOL    HW1 8571   3.368   2.217   2.155 -0.7828 -1.0819  1.0323
 2812SOL    HW2 8572   3.389   2.075   2.204  0.8634 -0.5682  1.8913
 2813SOL     OW 8573   1.195   0.329   0.232 -0.3810 -0.0491  0.1046
 2813SOL    HW1 8574   1.133   0.371   0.172 -0.0902 -1.2693 -1.0931
 2813SOL    HW2 8575   1.247   0.401   0.267 -0.5022  0.6929 -1.1820
 2814SOL     OW 8576   3.897   1.881   0.596  0.2729  0.1049  0.5097
 2814SOL    HW1 8577   3.983   1.912   0.622  1.1683 -1.5429 -0.3543
 2814SOL    HW2 8578   3.870   1.941   0.526  0.4480  0.9459  1.1379
 2815SOL     OW 8579   3.342   1.910   0.160  0.2833 -0.2490  0.0071
 2815SOL    HW1 8580   3.361   1.949   0.074  1.2177  1.0431  0.7673
 2815SOL    HW2 8581   3.328   1.817   0.141  3.8779 -0.7134 -1.1807
 2816SOL     OW 8582   4.433   4.772   2.605  0.0639  0.5587  0.0053
 2816SOL    HW1 8583   4.435   4.699   2.668  0.4062  0.0882 -0.5413
 2816SOL    HW2 8584   4.496   4.835   2.640 -0.5370  0.7898  0.7065
 2817SOL     OW 8585   3.593   0.488   0.193 -0.2391 -0.4231  0.4602
 2817SOL    HW1 8586   3.589   0.392   0.187 -1.3307 -0.4222  1.0729
 2817SOL    HW2 8587   3.654   0.513   0.123  3.0135 -1.8051  2.5450
 2818SOL     OW 8588   0.405   3.254   3.191  0.2788 -0.0171 -0.1349
 2818SOL    HW1 8589   0.489   3.298   3.189  0.1937  0.3434  1.7091
 2818SOL    HW2 8590   0.426   3.163   3.211  0.3379 -0.4145 -1.9163
 2819SOL     OW 8591   2.676   3.315   4.619  0.6765 -0.5274  0.1012
 2819SOL    HW1 8592   2.581   3.303   4.623  0.7305 -0.6921  1.2517
 2819SOL    HW2 8593   2.690   3.406   4.645  0.8689 -0.6961  0.6045
 2820SOL     OW 8594   4.802   1.825   1.889 -0.5677 -0.2200  0.0409
 2820SOL    HW1 8595   4.737   1.890   1.913 -0.3410  0.0471 -0.0723
 2820SOL    HW2 8596   4.793   1.756   1.956 -1.4540 -0.5241 -0.3866
 2821SOL     OW 8597   2.248   4.704   4.824  0.2833  0.0253  0.0814
 2821SOL    HW1 8598   2.299   4.747   4.892 -0.3087  1.8152 -0.5376
 2821SOL    HW2 8599   2.314   4.669   4.763  0.8064  1.0301  0.0469
 2822SOL     OW 8600   1.991   1.252   3.577 -0.1075 -0.6556 -0.3918
 2822SOL    HW1 8601   1.898   1.255   3.601 -0.0650 -0.3783 -0.2562
 2822SOL    HW2 8602   1.993   1.204   3.494 -0.2117 -2.0138  0.3629
 2823SOL     OW 8603   4.962   0.816   1.030  0.0843  0.3970 -0.5273
 2823SOL    HW1 8604   4.873   0.784   1.013 -0.1532 -0.3073  1.7558
 2823SOL    HW2 8605   4.950   0.905   1.060 -0.0119 -0.1538  1.1416
 2824SOL     OW 8606   0.214   1.054   0.701 -0.4141 -0.4489  0.2447
 2824SOL    HW1 8607   0.148   1.118   0.671  1.4929  2.0647  1.0728
 2824SOL    HW2 8608   0.215   1.064   0.796  1.7577  0.2743  0.1901
 2825SOL     OW 8609   0.487   4.274   4.592  0.2059  0.2583 -0.0947
 2825SOL    HW1 8610   0.494   4.184   4.623 -0.4987  0.0292 -0.5850
 2825SOL    HW2 8611   0.443   4.320   4.663  0.5737  0.2288  0.1601
 2826SOL     OW 8612   5.012   3.453   4.639  0.5790 -0.2138  0.0272
 2826SOL    HW1 8613   4.977   3.432   4.552  0.4734 -1.6427  0.3968
 2826SOL    HW2 8614   5.100   3.416   4.639 -0.2349 -2.3113  1.2983
 2827SOL     OW 8615   0.516   3.587   1.378 -0.0832 -0.7279  0.0063
 2827SOL    HW1 8616   0.522   3.494   1.359  0.6099 -0.3903 -1.5787
 2827SOL    HW2 8617   0.423   3.603   1.393 -0.2440 -1.6089  0.0092
 2828SOL     OW 8618   0.675   3.874   0.606  0.3738  0.2105 -0.2027
 2828SOL    HW1 8619   0.609   3.842   0.545  0.0053  0.1257  0.2337
 2828SOL    HW2 8620   0.754   3.826   0.584  0.4048  0.6081 -1.0008
 2829SOL     OW 8621   1.183   0.664   3.541 -0.2689  1.0355  0.0104
 2829SOL    HW1 8622   1.226   0.748   3.557 -0.9448  1.3548  0.1898
 2829SOL    HW2 8623   1.174   0.661   3.445 -0.1701  1.1296 -0.0031
 2830SOL     OW 8624   4.470   0.945   4.244 -0.4764 -0.6310  0.6357
 2830SOL    HW1 8625   4.458   1.036   4.215 -1.9145 -0.7291  0.8524
 2830SOL    HW2 8626   4.461   0.950   4.340 -0.1451 -0.9455  0.6835
 2831SOL     OW 8627   0.383   3.341   0.525  0.3320 -0.4974  0.7203
 2831SOL    HW1 8628   0.359   3.430   0.501 -1.0053 -0.9571  0.2841
 2831SOL    HW2 8629   0.360   3.288   0.448  2.1770 -1.0820  0.5228
 2832SOL     OW 8630   2.467   1.729   3.507  0.2565  0.3053  0.1432
 2832SOL    HW1 8631   2.500   1.665   3.571  1.2206  0.7751  0.1409
 2832SOL    HW2 8632   2.512   1.707   3.426  0.1456  0.6193 -0.0050
 2833SOL     OW 8633   4.442   4.819   2.996 -0.0164  0.0250  0.5136
 2833SOL    HW1 8634   4.527   4.843   3.035  0.0820 -1.8966  1.5707
 2833SOL    HW2 8635   4.464   4.754   2.929 -0.4659  1.3160 -0.9445
 2834SOL     OW 8636   0.773   4.862   0.436 -1.0289  0.4702  0.2944
 2834SOL    HW1 8637   0.726   4.801   0.492 -0.1455 -0.8453 -0.3472
 2834SOL    HW2 8638   0.824   4.916   0.496 -1.9444  0.6941  0.8818
 2835SOL     OW 8639   2.793   1.098   4.079 -0.2992 -0.2365  0.1126
 2835SOL    HW1 8640   2.858   1.125   4.015 -0.0902  0.7031  0.7055
 2835SOL    HW2 8641   2.748   1.024   4.038  1.1322 -0.9071 -0.3060
 2836SOL     OW 8642   0.343   4.814   3.021 -0.2326 -0.4225 -0.6077
 2836SOL    HW1 8643   0.357   4.832   3.114  2.1152  1.4234 -1.2105
 2836SOL    HW2 8644   0.288   4.886   2.991 -0.4349 -0.6488 -0.7766
 2837SOL     OW 8645   2.923   3.883   2.541 -0.9403  0.0658  0.5770
 2837SOL    HW1 8646   2.864   3.923   2.605 -1.5918  0.6036 -0.3383
 2837SOL    HW2 8647   2.956   3.804   2.584  0.7926  1.7963  2.6445
 2838SOL     OW 8648   1.621   2.395   3.955  0.5659  0.4503 -0.2120
 2838SOL    HW1 8649   1.637   2.328   4.022 -1.0113 -0.2579 -0.4990
 2838SOL    HW2 8650   1.644   2.478   3.998 -0.1337 -0.0202  1.1157
 2839SOL     OW 8651   0.918   4.414   2.228  0.1439  0.2760 -0.1032
 2839SOL    HW1 8652   0.852   4.476   2.257  0.0264  0.0066  0.2031
 2839SOL    HW2 8653   0.881   4.328   2.247 -0.0001  0.0900 -1.1831
 2840SOL     OW 8654   4.093   0.469   2.024 -0.4778 -0.7607  0.6070
 2840SOL    HW1 8655   4.120   0.388   2.067  0.4992 -0.6151  0.2896
 2840SOL    HW2 8656   4.000   0.476   2.043 -0.5141 -1.8089  0.8792
 2841SOL     OW 8657   0.132   1.579   0.583  0.4445  0.1608 -0.1780
 2841SOL    HW1 8658   0.190   1.515   0.624  1.6096  1.9326  1.0886
 2841SOL    HW2 8659   0.046   1.562   0.621  0.8480 -0.3333  0.5203
 2842SOL     OW 8660   2.709   4.117   0.221 -0.6099  0.2778 -0.1808
 2842SOL    HW1 8661   2.724   4.076   0.307 -0.3780  1.4332  0.3500
 2842SOL    HW2 8662   2.618   4.096   0.201 -0.7153  0.1167  0.4268
 2843SOL     OW 8663   4.609   3.457   3.564 -0.3149  0.2195  0.1435
 2843SOL    HW1 8664   4.686   3.465   3.509 -0.4738 -0.5763 -0.2126
 2843SOL    HW2 8665   4.552   3.529   3.537  0.5472  1.1936  0.8436
 2844SOL     OW 8666   4.030   3.358   1.038  0.1896 -0.3151 -0.2071
 2844SOL    HW1 8667   4.124   3.371   1.046  0.3319 -1.0004 -0.6731
 2844SOL    HW2 8668   3.993   3.446   1.045  0.8319 -0.0747  0.3162
 2845SOL     OW 8669   0.694   2.671   2.923 -0.0224 -0.3923 -0.0353
 2845SOL    HW1 8670   0.598   2.676   2.925 -0.0989 -1.7053  1.6215
 2845SOL    HW2 8671   0.715   2.662   2.830 -1.4382  0.6066 -0.4845
 2846SOL     OW 8672   0.341   4.881   4.412  0.4169  0.4066  0.3826
 2846SOL    HW1 8673   0.285   4.804   4.419  2.3032 -1.1736 -0.8400
 2846SOL    HW2 8674   0.382   4.873   4.326  0.4863  2.9511  0.1001
 2847SOL     OW 8675   2.633   0.577   3.490 -0.3195 -0.2602 -0.0327
 2847SOL    HW1 8676   2.560   0.518   3.473 -0.7501  0.1430  0.3666
 2847SOL    HW2 8677   2.711   0.531   3.459 -0.8550 -0.3209 -1.3150
 2848SOL     OW 8678   0.232   0.536   3.648 -0.1071 -0.1003  0.5981
 2848SOL    HW1 8679   0.214   0.510   3.738  0.6228 -2.6397  0.0719
 2848SOL    HW2 8680   0.148   0.528   3.603 -0.3204  0.5068  0.8694
 2849SOL     OW 8681   1.209   1.793   4.727  0.3382  0.3936  0.3510
 2849SOL    HW1 8682   1.251   1.877   4.746  0.9322  0.3236 -0.5710
 2849SOL    HW2 8683   1.124   1.798   4.771  0.1628  1.6798 -0.0940
 2850SOL     OW 8684   0.009   1.173   1.718  0.5274 -0.4636  0.4377
 2850SOL    HW1 8685  -0.059   1.111   1.692 -0.5641  0.8180  0.0859
 2850SOL    HW2 8686   0.086   1.149   1.665  0.1879 -1.6168  0.4631
 2851SOL     OW 8687   1.200   4.978   1.791  0.1694 -0.2119 -0.6925
 2851SOL    HW1 8688   1.117   5.024   1.778 -0.4054 -0.8497  0.6188
 2851SOL    HW2 8689   1.220   4.941   1.705 -0.3457  0.8398 -1.2912
 2852SOL     OW 8690   2.588   2.714   2.232  0.3089  0.2112 -0.0533
 2852SOL    HW1 8691   2.593   2.640   2.292  0.7867 -0.6782 -1.1644
 2852SOL    HW2 8692   2.669   2.764   2.248  0.6749 -0.2957 -0.2834
 2853SOL     OW 8693   1.515   0.301   2.135  0.3979 -0.1546 -0.0527
 2853SOL    HW1 8694   1.471   0.275   2.216 -0.0412  1.5440  0.2927
 2853SOL    HW2 8695   1.552   0.220   2.100 -1.1940 -1.2722  0.7577
 2854SOL     OW 8696   4.858   4.002   3.408 -0.5632 -0.5857 -0.2258
 2854SOL    HW1 8697   4.877   3.947   3.333 -1.5413 -1.1402 -0.0887
 2854SOL    HW2 8698   4.803   3.948   3.465 -0.4199  0.0598  0.5578
 2855SOL     OW 8699   1.299   1.346   2.339 -0.0530 -0.5878 -0.1788
 2855SOL    HW1 8700   1.287   1.297   2.421  0.0823 -1.8631 -0.9043
 2855SOL    HW2 8701   1.211   1.376   2.316 -0.1625 -0.6215  0.1872
 2856SOL     OW 8702   3.304   0.688   4.563 -0.3355  0.2650  0.5367
 2856SOL    HW1 8703   3.302   0.711   4.656  0.2308 -0.3978  0.7186
 2856SOL    HW2 8704   3.376   0.741   4.528  2.5760 -2.7695  1.4268
 2857SOL     OW 8705   1.051   4.568   3.242  0.4453  0.0532  0.2365
 2857SOL    HW1 8706   1.048   4.562   3.147 -0.0492  0.9079  0.1895
 2857SOL    HW2 8707   1.025   4.482   3.273 -0.4007  0.0706 -0.3989
 2858SOL     OW 8708   3.218   5.007   4.493 -0.1094 -0.7704  0.3661
 2858SOL    HW1 8709   3.226   4.913   4.482  4.2017 -0.7959  1.6519
 2858SOL    HW2 8710   3.238   5.043   4.407  1.7946 -1.1089  0.6174
 2859SOL     OW 8711   4.641   2.439   2.476 -0.3121  0.2693  0.2313
 2859SOL    HW1 8712   4.706   2.437   2.406  1.1205 -2.3340  1.4530
 2859SOL    HW2 8713   4.571   2.380   2.447 -1.7648  2.3342 -0.6707
 2860SOL     OW 8714   0.794   1.667   2.036  0.6073 -0.6167  0.0111
 2860SOL    HW1 8715   0.717   1.612   2.018  0.4766 -1.0956  1.7660
 2860SOL    HW2 8716   0.760   1.738   2.091  1.6140 -1.7428  2.2327
 2861SOL     OW 8717   0.921   3.049   1.650 -0.1099  0.0015  0.3600
 2861SOL    HW1 8718   0.986   3.001   1.599  0.7136 -0.8688  2.1291
 2861SOL    HW2 8719   0.837   3.013   1.620  0.2574  0.3648 -1.1816
 2862SOL     OW 8720   3.799   0.637   3.734 -0.1278  0.3484 -0.2446
 2862SOL    HW1 8721   3.869   0.618   3.796  0.2229  1.8190 -0.1492
 2862SOL    HW2 8722   3.836   0.704   3.676 -0.8360 -0.1806 -1.3374
 2863SOL     OW 8723   2.677   3.896   1.272 -0.0424  0.4025  0.1973
 2863SOL    HW1 8724   2.699   3.813   1.231  0.1757  0.5801 -0.0515
 2863SOL    HW2 8725   2.697   3.883   1.365 -0.4611  0.0244  0.2383
 2864SOL     OW 8726   2.597   2.812   2.537  0.0241  0.1762 -0.2180
 2864SOL    HW1 8727   2.510   2.772   2.540  0.7803 -1.5494 -0.3718
 2864SOL    HW2 8728   2.591   2.887   2.596 -2.4493  2.0140 -2.5822
 2865SOL     OW 8729   3.848   4.354   2.831  0.1999  0.0779  0.2861
 2865SOL    HW1 8730   3.800   4.317   2.906 -0.6938 -0.4540 -0.5154
 2865SOL    HW2 8731   3.780   4.397   2.779  1.0356  1.7690  0.5322
 2866SOL     OW 8732   2.138   1.631   3.553  0.6019  0.2528  0.1378
 2866SOL    HW1 8733   2.062   1.687   3.570  1.3065  1.4087 -0.3562
 2866SOL    HW2 8734   2.208   1.670   3.605  1.1919  0.0531 -0.4988
 2867SOL     OW 8735   4.586   4.285   1.055 -0.0837  0.3126 -0.0165
 2867SOL    HW1 8736   4.659   4.312   1.111  2.1405 -1.6203 -1.7838
 2867SOL    HW2 8737   4.570   4.194   1.081 -0.7231  0.1969 -0.8034
 2868SOL     OW 8738   1.109   4.147   1.290  0.1595 -0.4389  0.5999
 2868SOL    HW1 8739   1.100   4.072   1.349  1.3109 -0.7503  0.3982
 2868SOL    HW2 8740   1.074   4.116   1.207 -0.2816 -0.4232  0.7785
 2869SOL     OW 8741   2.159   0.115   4.818  0.2973  0.3101  0.3390
 2869SOL    HW1 8742   2.207   0.134   4.737  0.4542  0.8930  0.5651
 2869SOL    HW2 8743   2.079   0.166   4.810 -1.1840 -2.0362 -0.8624
 2870SOL     OW 8744   2.529   4.854   4.903 -0.9258 -0.5747 -0.3576
 2870SOL    HW1 8745   2.521   4.938   4.859 -1.2135 -1.2540 -1.6533
 2870SOL    HW2 8746   2.503   4.871   4.993 -0.3134  0.8614 -0.4326
 2871SOL     OW 8747   4.687   1.110   3.538 -0.4319 -0.2315 -0.0644
 2871SOL    HW1 8748   4.777   1.143   3.545 -0.2626 -0.9101  1.2599
 2871SOL    HW2 8749   4.694   1.032   3.484  0.1508 -1.4916  1.7498
 2872SOL     OW 8750   3.319   1.838   3.401 -0.3768 -0.1024 -0.1018
 2872SOL    HW1 8751   3.376   1.794   3.464  0.4456 -1.1815 -1.5159
 2872SOL    HW2 8752   3.370   1.837   3.319 -1.7593  0.4201 -0.9970
 2873SOL     OW 8753   3.292   0.063   1.136 -0.3156  0.3550  0.2347
 2873SOL    HW1 8754   3.203   0.031   1.148 -0.0682  0.0584  1.4005
 2873SOL    HW2 8755   3.292   0.150   1.177  0.8611 -1.1679  3.8969
 2874SOL     OW 8756   1.816   1.558   3.526 -0.3285  0.0371 -0.3379
 2874SOL    HW1 8757   1.762   1.620   3.478 -1.3711  0.3896  1.2172
 2874SOL    HW2 8758   1.770   1.474   3.519  0.5520 -0.3773 -1.5761
 2875SOL     OW 8759   1.193   3.385   2.725  0.4435 -0.5124 -0.0577
 2875SOL    HW1 8760   1.146   3.462   2.695 -0.2750 -0.2905  1.5339
 2875SOL    HW2 8761   1.127   3.315   2.725  1.2205 -1.3160 -2.0372
 2876SOL     OW 8762   1.074   3.587   2.596  0.1068 -0.3467 -0.1770
 2876SOL    HW1 8763   1.069   3.574   2.501 -0.7502 -2.5679  0.1210
 2876SOL    HW2 8764   1.084   3.682   2.606  0.8092 -0.1064 -2.4911
 2877SOL     OW 8765   4.068   2.952   2.148  0.3464  0.2844  0.9074
 2877SOL    HW1 8766   4.109   2.961   2.062  1.7389 -1.5786  1.3219
 2877SOL    HW2 8767   3.981   2.992   2.137  0.6516  0.4924 -1.2197
 2878SOL     OW 8768   4.192   0.420   4.619  0.5327  0.2015 -0.2160
 2878SOL    HW1 8769   4.211   0.427   4.526  0.3864  1.1459 -0.1884
 2878SOL    HW2 8770   4.106   0.461   4.629 -0.3135 -1.5674  0.0646
 2879SOL     OW 8771   1.095   4.616   4.807  0.1743 -0.2570  0.4476
 2879SOL    HW1 8772   1.064   4.665   4.731 -1.2141 -2.6388 -0.6452
 2879SOL    HW2 8773   1.139   4.539   4.770 -1.1469 -1.8527  1.9796
 2880SOL     OW 8774   2.990   1.118   1.978 -0.0010  0.0055  0.4253
 2880SOL    HW1 8775   2.937   1.196   1.992  0.4158  0.6447 -1.2643
 2880SOL    HW2 8776   2.926   1.048   1.965 -0.3973  0.2778  0.8790
 2881SOL     OW 8777   4.149   1.508   0.465  0.4092  0.3474 -0.3048
 2881SOL    HW1 8778   4.075   1.555   0.504  1.1479  1.1404  0.1778
 2881SOL    HW2 8779   4.113   1.422   0.443 -0.4905  0.4844  0.5199
 2882SOL     OW 8780   4.967   0.350   4.845 -0.5467 -0.0081  0.3483
 2882SOL    HW1 8781   5.036   0.309   4.794 -0.1543  2.1762 -1.0182
 2882SOL    HW2 8782   4.909   0.278   4.870 -0.0161 -1.3755 -2.0489
 2883SOL     OW 8783   0.937   1.511   3.329 -0.3300  0.3616  0.6109
 2883SOL    HW1 8784   0.943   1.578   3.261 -0.7081  0.5349  0.7459
 2883SOL    HW2 8785   0.846   1.482   3.325  0.3616 -1.8991 -1.1319
 2884SOL     OW 8786   4.209   2.750   0.084  0.1431  0.2393 -0.3124
 2884SOL    HW1 8787   4.270   2.824   0.092  1.3667 -0.7804  0.1297
 2884SOL    HW2 8788   4.149   2.776   0.014  0.9957  1.3387 -0.6717
 2885SOL     OW 8789   1.181   0.333   2.696 -0.4982  0.0847 -1.3949
 2885SOL    HW1 8790   1.212   0.245   2.673  0.4636  0.4664 -1.6058
 2885SOL    HW2 8791   1.103   0.346   2.641 -0.5061 -0.5375 -1.5414
 2886SOL     OW 8792   2.294   1.542   1.359  0.0031 -0.4408  0.5477
 2886SOL    HW1 8793   2.314   1.539   1.452  2.2997  0.1385  0.1252
 2886SOL    HW2 8794   2.326   1.459   1.324  0.0120 -0.2631  0.1254
 2887SOL     OW 8795   4.961   4.299   0.382  0.3056 -0.2558 -0.3018
 2887SOL    HW1 8796   4.870   4.268   0.389  0.1350 -0.1788 -1.9323
 2887SOL    HW2 8797   4.969   4.332   0.293  2.0909 -0.7056 -0.3475
 2888SOL     OW 8798   1.976   3.573   3.399 -0.1740  0.2238 -0.1610
 2888SOL    HW1 8799   2.036   3.605   3.466 -0.2927  0.8692 -0.3637
 2888SOL    HW2 8800   1.962   3.481   3.422  1.9374 -0.3182 -0.8784
 2889SOL     OW 8801   0.958   0.241   4.897  0.5522 -0.4756  0.4676
 2889SOL    HW1 8802   0.999   0.173   4.951 -0.6005 -1.3473  0.2666
 2889SOL    HW2 8803   0.923   0.194   4.822  0.4128  0.4603 -0.0613
 2890SOL     OW 8804   1.910   0.426   0.491 -0.2675  0.0384  1.1387
 2890SOL    HW1 8805   1.939   0.464   0.408 -1.5504  0.9497  1.0768
 2890SOL    HW2 8806   1.948   0.483   0.558  2.0105 -1.5530  1.2903
 2891SOL     OW 8807   4.531   0.592   0.846 -0.7230 -0.5012  0.4498
 2891SOL    HW1 8808   4.566   0.609   0.758  0.0868  0.3218  0.9157
 2891SOL    HW2 8809   4.478   0.513   0.836 -3.2889  1.2862 -1.4812
 2892SOL     OW 8810   2.223   3.881   1.842 -0.2542 -0.0369  0.7958
 2892SOL    HW1 8811   2.293   3.942   1.819 -1.2322  0.5930 -0.6623
 2892SOL    HW2 8812   2.198   3.906   1.931 -0.0791  1.1797  0.5247
 2893SOL     OW 8813   2.162   1.329   2.866 -0.4421  0.4590  0.0910
 2893SOL    HW1 8814   2.205   1.321   2.781 -0.1758  1.3102  0.1407
 2893SOL    HW2 8815   2.221   1.383   2.918  0.2440 -1.4564  1.4093
 2894SOL     OW 8816   4.362   3.156   0.365 -0.6337  0.1012  0.7404
 2894SOL    HW1 8817   4.333   3.199   0.445 -1.4114  0.9893  0.0150
 2894SOL    HW2 8818   4.334   3.065   0.375 -1.5422  0.4052  1.1129
 2895SOL     OW 8819   0.276   2.452   0.889  0.2057 -0.7209 -0.3301
 2895SOL    HW1 8820   0.225   2.451   0.808 -1.0734 -1.3671  0.4518
 2895SOL    HW2 8821   0.290   2.545   0.908  1.8940 -0.5566 -2.0827
 2896SOL     OW 8822   4.670   2.796   1.419 -0.0554  0.4069  0.4442
 2896SOL    HW1 8823   4.746   2.758   1.465  1.1754  0.3495 -1.5260
 2896SOL    HW2 8824   4.694   2.888   1.406 -0.1123  0.2917 -0.5563
 2897SOL     OW 8825   4.657   2.958   4.258  0.3066 -0.1303 -0.0344
 2897SOL    HW1 8826   4.608   2.952   4.339 -1.4724 -2.2577 -1.1618
 2897SOL    HW2 8827   4.629   3.041   4.219  0.3345  0.3640  0.9703
 2898SOL     OW 8828   1.922   2.649   3.322  0.6194  0.0825 -0.0171
 2898SOL    HW1 8829   1.832   2.620   3.332  0.9274 -0.6044  0.8899
 2898SOL    HW2 8830   1.916   2.745   3.317 -0.1340  0.0543  0.2627
 2899SOL     OW 8831   0.799   3.507   0.318  0.1410 -0.0884  0.6165
 2899SOL    HW1 8832   0.711   3.537   0.341 -0.1881 -1.0637  0.6723
 2899SOL    HW2 8833   0.792   3.481   0.226  0.5675  0.5281  0.4025
 2900SOL     OW 8834   0.632   0.052   2.192 -1.0786 -0.4009 -0.4512
 2900SOL    HW1 8835   0.566  -0.012   2.217 -0.1641 -1.1164  0.2013
 2900SOL    HW2 8836   0.582   0.130   2.166 -2.1913 -1.2720 -0.9753
 2901SOL     OW 8837   2.123   4.186   3.923  0.4787  0.2008  0.1600
 2901SOL    HW1 8838   2.148   4.269   3.965 -1.3969 -0.4057  2.7211
 2901SOL    HW2 8839   2.093   4.211   3.836  0.0284  2.2270  0.8356
 2902SOL     OW 8840   1.989   4.124   4.464 -0.0184  0.9487  0.7245
 2902SOL    HW1 8841   2.046   4.049   4.482  1.1667  2.0708  1.8318
 2902SOL    HW2 8842   2.040   4.180   4.406 -1.7609 -0.0795 -2.0063
 2903SOL     OW 8843   1.567   1.180   2.440 -0.3225  0.1507  0.6602
 2903SOL    HW1 8844   1.557   1.204   2.348  1.7903 -1.1472  0.0210
 2903SOL    HW2 8845   1.564   1.084   2.441  0.9461  0.0863  1.7195
 2904SOL     OW 8846   1.258   4.089   4.744 -0.4433  0.1304 -0.2380
 2904SOL    HW1 8847   1.220   4.168   4.706 -0.4294 -0.3192 -1.2149
 2904SOL    HW2 8848   1.189   4.023   4.736 -0.4364  0.0194  0.5247
 2905SOL     OW 8849   1.008   4.902   1.200  0.5643  0.1707  0.3699
 2905SOL    HW1 8850   1.092   4.873   1.237  0.1256  1.1137  2.2189
 2905SOL    HW2 8851   0.947   4.832   1.222  0.7899 -0.4295 -0.8172
 2906SOL     OW 8852   3.973   0.429   4.092  0.4403  0.2620 -0.0335
 2906SOL    HW1 8853   4.025   0.496   4.047  0.4677  2.0907  2.4506
 2906SOL    HW2 8854   3.883   0.461   4.085  0.5966  1.5648  2.4590
 2907SOL     OW 8855   0.025   2.338   4.195  0.1688 -0.2791 -0.0690
 2907SOL    HW1 8856   0.052   2.259   4.148 -0.3909  0.4558 -1.6918
 2907SOL    HW2 8857  -0.030   2.386   4.132 -0.2980  0.9331  1.2170
 2908SOL     OW 8858   3.786   1.011   0.641  0.0452  0.0840 -0.7610
 2908SOL    HW1 8859   3.699   0.972   0.634 -0.9253  1.8786  0.4312
 2908SOL    HW2 8860   3.823   0.974   0.721 -0.6951  1.2089  0.1290
 2909SOL     OW 8861   4.132   0.203   2.130  1.0325 -0.2587 -0.7508
 2909SOL    HW1 8862   4.062   0.157   2.084  0.2784  0.8733 -0.7980
 2909SOL    HW2 8863   4.097   0.218   2.218  1.1072  0.5274 -0.8473
 2910SOL     OW 8864   2.980   1.398   4.394  0.2951  0.4712 -0.1469
 2910SOL    HW1 8865   3.054   1.341   4.371 -1.1626 -1.5274 -0.1331
 2910SOL    HW2 8866   2.987   1.472   4.334  1.8676 -0.0573 -0.6598
 2911SOL     OW 8867   1.996   1.067   1.840 -0.1045  0.7704  0.4408
 2911SOL    HW1 8868   2.038   1.078   1.926 -0.2833 -0.1089  0.6456
 2911SOL    HW2 8869   1.904   1.048   1.861  0.1729 -1.0957  0.1285
 2912SOL     OW 8870   3.089   3.909   2.897 -0.1205  0.1384 -0.1628
 2912SOL    HW1 8871   3.169   3.956   2.873  0.2092  0.7286  1.9257
 2912SOL    HW2 8872   3.117   3.818   2.907  0.0490  0.1505 -0.5108
 2913SOL     OW 8873   0.141   3.147   2.171  0.6583 -0.0896 -0.0067
 2913SOL    HW1 8874   0.235   3.143   2.151  0.0946 -1.3646 -2.8292
 2913SOL    HW2 8875   0.111   3.057   2.165 -0.9893  0.4536 -0.4381
 2914SOL     OW 8876   3.955   0.116   4.066 -0.1284  0.2956 -0.1619
 2914SOL    HW1 8877   3.935   0.173   3.992  1.2392 -0.3471 -1.0660
 2914SOL    HW2 8878   3.926   0.029   4.039  0.9386 -0.0549 -0.2081
 2915SOL     OW 8879   1.202   4.013   3.653  0.0146  0.6914 -0.3294
 2915SOL    HW1 8880   1.150   3.954   3.708 -1.3043  0.3558 -1.8607
 2915SOL    HW2 8881   1.274   4.041   3.710 -0.4392 -0.8025  1.0792
 2916SOL     OW 8882   1.387   1.930   3.502  0.7511  0.0742  0.7240
 2916SOL    HW1 8883   1.300   1.921   3.540 -0.8725  0.0876 -2.6832
 2916SOL    HW2 8884   1.420   1.841   3.494 -1.5476 -0.6225 -3.2375
 2917SOL     OW 8885   4.487   4.166   0.599 -0.0965  0.2394 -0.2544
 2917SOL    HW1 8886   4.465   4.088   0.547  0.7500  0.4883 -0.9943
 2917SOL    HW2 8887   4.573   4.146   0.637 -0.4371  0.3094  0.5962
 2918SOL     OW 8888   2.363   3.608   2.814 -0.2078 -0.4144  0.4579
 2918SOL    HW1 8889   2.283   3.616   2.867 -1.6056 -0.0986 -1.5748
 2918SOL    HW2 8890   2.344   3.660   2.735  2.4565  0.5864  0.3818
 2919SOL     OW 8891   3.846   3.888   0.222  0.7277  0.2319 -0.7821
 2919SOL    HW1 8892   3.883   3.963   0.269  1.5530 -0.5975 -0.0777
 2919SOL    HW2 8893   3.854   3.911   0.130  0.2534  1.3350 -0.5758
 2920SOL     OW 8894   4.040   4.590   1.581  0.2313  0.1839  0.4703
 2920SOL    HW1 8895   4.085   4.674   1.588 -0.8310  0.6643  1.9392
 2920SOL    HW2 8896   4.065   4.543   1.661 -0.5211 -0.2000  0.4878
 2921SOL     OW 8897   1.413   0.070   0.438  1.2374 -0.0962  0.0018
 2921SOL    HW1 8898   1.362   0.151   0.448 -0.6932 -1.0024 -1.8185
 2921SOL    HW2 8899   1.493   0.098   0.393  0.1401  0.7191 -1.5645
 2922SOL     OW 8900   0.080   1.693   3.422 -0.0666  0.1210  0.0015
 2922SOL    HW1 8901   0.016   1.750   3.379 -0.8753 -1.8360 -1.5137
 2922SOL    HW2 8902   0.163   1.712   3.378 -0.4749 -0.3794 -0.9904
 2923SOL     OW 8903   0.367   1.315   1.154  0.4161  0.3180 -0.3011
 2923SOL    HW1 8904   0.383   1.257   1.228  4.5675  0.4264 -0.8404
 2923SOL    HW2 8905   0.371   1.403   1.192  2.3579  0.3670 -0.4932
 2924SOL     OW 8906   4.901   1.474   2.407 -0.2560  0.2187  0.0639
 2924SOL    HW1 8907   4.943   1.447   2.326 -1.0150 -0.2660 -0.1753
 2924SOL    HW2 8908   4.883   1.393   2.454 -2.4021  0.2482 -0.5850
 2925SOL     OW 8909   1.290   2.951   1.577 -0.0080 -0.7062 -0.1119
 2925SOL    HW1 8910   1.287   2.950   1.673 -0.5723 -0.8028 -0.1296
 2925SOL    HW2 8911   1.350   2.880   1.554  0.8203 -0.1127  0.1922
 2926SOL     OW 8912   1.291   0.735   1.805 -0.0724  0.4375  0.2817
 2926SOL    HW1 8913   1.369   0.782   1.834  0.7297 -1.0769  0.7009
 2926SOL    HW2 8914   1.249   0.706   1.885 -0.5610  0.4447  0.0322
 2927SOL     OW 8915   2.936   4.002   0.546  0.3486  0.2816 -0.5894
 2927SOL    HW1 8916   2.846   3.982   0.520  0.2351  0.3961 -0.2911
 2927SOL    HW2 8917   2.947   3.957   0.629  0.7777 -0.2488 -0.9273
 2928SOL     OW 8918   3.225   3.663   3.719  0.4583  0.3394  0.0159
 2928SOL    HW1 8919   3.303   3.614   3.690  1.1222  0.6936  1.1373
 2928SOL    HW2 8920   3.238   3.674   3.813 -0.2137  1.7321 -0.0333
 2929SOL     OW 8921   1.961   1.965   4.649 -0.2511  0.0803  0.0589
 2929SOL    HW1 8922   2.056   1.959   4.663 -0.2898 -1.4305 -0.2128
 2929SOL    HW2 8923   1.923   1.930   4.730 -0.5837  0.2629 -0.0185
 2930SOL     OW 8924   2.771   3.582   3.079 -0.4239 -0.7669  0.1541
 2930SOL    HW1 8925   2.813   3.500   3.054 -1.3818 -0.7751 -1.5500
 2930SOL    HW2 8926   2.756   3.628   2.997  1.0658  1.6662  1.1292
 2931SOL     OW 8927   1.981   3.206   4.316 -0.2188 -0.0735 -0.2004
 2931SOL    HW1 8928   1.951   3.176   4.230 -1.8253 -1.5944  0.8138
 2931SOL    HW2 8929   1.964   3.300   4.316 -0.7300 -0.1505 -1.3534
 2932SOL     OW 8930   3.625   4.205   3.005  0.0031  0.3190 -0.1782
 2932SOL    HW1 8931   3.579   4.246   3.079  2.0563  1.1345  0.7158
 2932SOL    HW2 8932   3.599   4.113   3.010 -1.9362  0.8171 -0.0707
 2933SOL     OW 8933   0.443   4.299   2.405 -0.5822  0.4615 -0.3857
 2933SOL    HW1 8934   0.465   4.281   2.496  1.2969 -0.4531 -0.9696
 2933SOL    HW2 8935   0.392   4.380   2.408  0.9691  1.4450  1.3195
 2934SOL     OW 8936   3.548   1.617   0.059 -0.1941 -0.3696 -0.2249
 2934SOL    HW1 8937   3.527   1.539   0.111  2.3434 -0.0798  1.4301
 2934SOL    HW2 8938   3.595   1.674   0.120  0.1553  1.4115 -2.0606
 2935SOL     OW 8939   1.704   2.805   4.278 -0.3935  0.0777 -0.0220
 2935SOL    HW1 8940   1.747   2.873   4.330 -1.2298 -0.2122  1.0826
 2935SOL    HW2 8941   1.754   2.726   4.295 -1.1692 -0.1979  1.0338
 2936SOL     OW 8942   3.018   0.030   3.404 -0.4550 -0.0415  0.4491
 2936SOL    HW1 8943   3.058  -0.010   3.481 -0.8288 -0.1314  0.6017
 2936SOL    HW2 8944   3.075   0.104   3.382  0.7673 -1.1815 -0.3987
 2937SOL     OW 8945   1.631   4.152   2.625 -0.1872 -0.0072 -0.3655
 2937SOL    HW1 8946   1.700   4.173   2.688 -2.4395  0.8922  1.9575
 2937SOL    HW2 8947   1.673   4.161   2.540  2.5208  0.5703  0.9326
 2938SOL     OW 8948   4.971   3.322   0.358 -1.1416  0.7583 -0.3899
 2938SOL    HW1 8949   4.986   3.324   0.264 -0.5843 -1.7123 -0.4027
 2938SOL    HW2 8950   4.876   3.331   0.368 -1.0969  2.3781 -1.0518
 2939SOL     OW 8951   3.650   4.662   4.325  0.0715  0.0716  0.6830
 2939SOL    HW1 8952   3.679   4.738   4.376 -1.0244  1.1108 -0.1861
 2939SOL    HW2 8953   3.703   4.666   4.245 -0.6413  0.4714  0.2270
 2940SOL     OW 8954   0.658   0.997   3.659 -0.2052  0.2046 -0.1739
 2940SOL    HW1 8955   0.752   0.983   3.644  0.1202 -0.5388  2.2165
 2940SOL    HW2 8956   0.645   0.975   3.751 -2.4306  1.9283 -0.0071
 2941SOL     OW 8957   3.167   2.701   3.279 -0.4843 -0.1127  0.2385
 2941SOL    HW1 8958   3.092   2.661   3.325  0.4004  1.8119  3.7396
 2941SOL    HW2 8959   3.138   2.790   3.260 -0.1259 -0.3069 -1.3702
 2942SOL     OW 8960   2.021   3.431   4.139  0.1550  0.5613 -0.0245
 2942SOL    HW1 8961   2.017   3.391   4.053 -1.0794 -1.2020  0.7948
 2942SOL    HW2 8962   2.106   3.476   4.141  1.3360 -1.4818 -1.2444
 2943SOL     OW 8963   2.048   2.344   3.569 -0.2497 -0.2542 -0.2432
 2943SOL    HW1 8964   2.037   2.255   3.534 -0.8151 -0.3375  0.1322
 2943SOL    HW2 8965   2.033   2.336   3.663  3.2188 -0.3815  0.4295
 2944SOL     OW 8966   4.010   1.381   0.154  0.4740  0.2610  0.7268
 2944SOL    HW1 8967   4.019   1.321   0.228 -0.7241  1.6816  2.1089
 2944SOL    HW2 8968   4.023   1.468   0.193 -2.7171  1.2501 -0.1396
 2945SOL     OW 8969   1.389   1.244   3.726 -0.4903 -0.4170  0.3969
 2945SOL    HW1 8970   1.435   1.319   3.689 -1.0357 -0.6445 -0.7694
 2945SOL    HW2 8971   1.302   1.277   3.748 -0.6728 -0.6599  0.0468
 2946SOL     OW 8972   4.543   4.015   1.203  0.0558  0.4715  0.2396
 2946SOL    HW1 8973   4.634   4.026   1.229 -0.0019 -0.4530  0.8963
 2946SOL    HW2 8974   4.493   4.028   1.284 -0.1112 -2.7257  0.7611
 2947SOL     OW 8975   1.047   3.111   2.660  0.2901 -0.2985 -0.2366
 2947SOL    HW1 8976   1.020   3.022   2.636  0.5273 -0.6607  0.8066
 2947SOL    HW2 8977   1.043   3.160   2.577 -0.4570 -1.1147 -0.7026
 2948SOL     OW 8978   1.680   3.023   0.667 -0.0404  0.0012  0.3489
 2948SOL    HW1 8979   1.619   3.097   0.664 -1.3224 -0.6691  3.8120
 2948SOL    HW2 8980   1.737   3.043   0.742 -1.1772 -2.8839  2.1417
 2949SOL     OW 8981   4.038   2.883   0.841 -0.3752  0.7718  0.0898
 2949SOL    HW1 8982   4.048   2.793   0.870  0.5668  0.5255 -0.9265
 2949SOL    HW2 8983   4.118   2.927   0.870  0.7203  0.4624 -2.2137
 2950SOL     OW 8984   4.541   2.729   3.158 -0.0616  0.1293  0.1628
 2950SOL    HW1 8985   4.593   2.735   3.078 -1.4768 -0.8780 -0.8753
 2950SOL    HW2 8986   4.467   2.673   3.135  0.9720 -2.7431  2.9476
 2951SOL     OW 8987   0.171   1.757   3.721  0.1648  0.2169  0.3151
 2951SOL    HW1 8988   0.204   1.679   3.764 -4.4001 -1.0949  2.0770
 2951SOL    HW2 8989   0.165   1.734   3.629 -1.2643 -1.7067  0.8316
 2952SOL     OW 8990   0.314   2.868   3.448  0.3405  0.2784  0.1730
 2952SOL    HW1 8991   0.369   2.917   3.387  0.8604 -0.7962 -0.2508
 2952SOL    HW2 8992   0.373   2.840   3.518  0.4203 -1.0599 -0.3899
 2953SOL     OW 8993   3.161   1.165   1.073  0.1355 -0.4278 -0.3146
 2953SOL    HW1 8994   3.149   1.071   1.059 -0.5315 -0.3410 -0.3612
 2953SOL    HW2 8995   3.072   1.201   1.069  0.2418  0.0328  0.9527
 2954SOL     OW 8996   1.847   4.307   0.956 -0.1927 -0.0647 -0.3287
 2954SOL    HW1 8997   1.825   4.264   0.873 -0.6703 -0.8701  0.1995
 2954SOL    HW2 8998   1.939   4.285   0.971 -0.6309 -1.5711  0.3082
 2955SOL     OW 8999   1.119   0.800   1.173 -0.8457 -0.8233  0.0044
 2955SOL    HW1 9000   1.155   0.887   1.159  0.4041 -1.1626  0.9238
 2955SOL    HW2 9001   1.144   0.751   1.095  0.1228 -0.8669  0.3331
 2956SOL     OW 9002   2.433   4.438   4.239  0.0279 -0.2102  0.0819
 2956SOL    HW1 9003   2.383   4.519   4.250 -1.9371 -0.9281 -2.4631
 2956SOL    HW2 9004   2.524   4.466   4.235 -0.6201  1.9694 -1.1353
 2957SOL     OW 9005   2.555   0.643   3.161 -0.0975  0.4606  0.2486
 2957SOL    HW1 9006   2.549   0.633   3.066  1.4599 -1.2036  0.2607
 2957SOL    HW2 9007   2.632   0.698   3.174 -1.0748  1.8050  0.5554
 2958SOL     OW 9008   3.942   2.528   1.330 -0.1368  0.3964 -0.1974
 2958SOL    HW1 9009   3.851   2.539   1.303  0.1273  2.6387 -0.3609
 2958SOL    HW2 9010   3.984   2.485   1.256 -1.3163 -2.1252  0.4842
 2959SOL     OW 9011   0.982   3.246   0.231 -0.6960 -0.4518  0.2850
 2959SOL    HW1 9012   0.892   3.226   0.253 -0.4918 -0.9383  0.6952
 2959SOL    HW2 9013   1.005   3.184   0.162 -0.6680 -0.3360  0.1887
 2960SOL     OW 9014   1.170   2.039   1.170 -0.0454 -0.1337  0.4752
 2960SOL    HW1 9015   1.155   2.084   1.087 -0.2066  0.2860  0.7254
 2960SOL    HW2 9016   1.148   1.948   1.153  0.9907 -0.2640 -0.2398
 2961SOL     OW 9017   2.649   2.351   3.935 -0.3837  0.2458 -0.2379
 2961SOL    HW1 9018   2.604   2.384   3.858 -0.4756 -1.5143 -1.0013
 2961SOL    HW2 9019   2.605   2.394   4.009 -1.1855  0.9549 -1.1023
 2962SOL     OW 9020   0.184   2.549   0.642 -0.4013  0.4402 -0.1821
 2962SOL    HW1 9021   0.105   2.546   0.587 -0.8820  0.2771  0.5058
 2962SOL    HW2 9022   0.171   2.627   0.697  0.1774  0.7259 -0.4424
 2963SOL     OW 9023   4.407   2.398   3.197 -0.4127  0.7717 -0.1169
 2963SOL    HW1 9024   4.375   2.441   3.276 -1.2297  1.7502 -0.9364
 2963SOL    HW2 9025   4.399   2.465   3.129 -1.9359 -0.7226 -1.5063
 2964SOL     OW 9026   2.147   3.943   2.078  0.0952 -0.0493 -0.4944
 2964SOL    HW1 9027   2.104   4.014   2.126  2.1932  1.3663 -0.5705
 2964SOL    HW2 9028   2.226   3.924   2.129  1.6631  0.5239 -2.5698
 2965SOL     OW 9029   3.714   4.093   0.785 -0.4396 -0.0648 -0.0924
 2965SOL    HW1 9030   3.697   4.179   0.747 -0.8385 -1.0904 -2.3681
 2965SOL    HW2 9031   3.692   4.031   0.716  0.3919 -2.0008  1.2897
 2966SOL     OW 9032   0.388   0.693   1.692 -0.0549  0.1700 -0.1479
 2966SOL    HW1 9033   0.322   0.717   1.757  0.3237  0.8341 -0.0087
 2966SOL    HW2 9034   0.394   0.769   1.635 -0.6108 -0.5165 -1.1652
 2967SOL     OW 9035   4.063   4.415   2.675 -0.1953  1.1474 -0.2386
 2967SOL    HW1 9036   4.123   4.344   2.652  0.0769  1.4816 -0.5677
 2967SOL    HW2 9037   4.031   4.393   2.762  1.2026  1.5128  0.3744
 2968SOL     OW 9038   4.146   3.435   4.207 -0.5527 -0.5130 -0.7548
 2968SOL    HW1 9039   4.198   3.355   4.222  1.6468  0.9967  0.3391
 2968SOL    HW2 9040   4.203   3.491   4.154 -0.0201  2.0755  2.2438
 2969SOL     OW 9041   2.105   4.481   4.720 -0.1236  0.0360  0.2331
 2969SOL    HW1 9042   2.168   4.554   4.722  0.7550 -0.5752 -1.8277
 2969SOL    HW2 9043   2.141   4.421   4.655 -1.6130 -1.5390  0.7945
 2970SOL     OW 9044   2.604   3.164   3.494 -0.3773  0.1083  0.2788
 2970SOL    HW1 9045   2.672   3.102   3.523 -0.0808 -0.7567 -2.0692
 2970SOL    HW2 9046   2.648   3.249   3.495  0.0450 -0.1057  0.9090
 2971SOL     OW 9047   2.571   4.378   0.612  0.1535  0.7730  0.3284
 2971SOL    HW1 9048   2.602   4.463   0.583  0.6095 -0.1990 -2.2536
 2971SOL    HW2 9049   2.649   4.324   0.618 -0.2331  0.2637  1.0818
 2972SOL     OW 9050   1.363   0.108   3.434  0.3540  0.1358 -0.0953
 2972SOL    HW1 9051   1.341   0.030   3.485  1.0521  1.0298  1.6497
 2972SOL    HW2 9052   1.438   0.083   3.381 -1.1843 -1.2098 -1.7840
 2973SOL     OW 9053   4.445   2.806   1.210  0.0153  0.5293 -0.2588
 2973SOL    HW1 9054   4.525   2.846   1.244 -0.5231  0.6416  0.9461
 2973SOL    HW2 9055   4.413   2.752   1.282 -0.8130  0.2090 -0.8505
 2974SOL     OW 9056   4.831   0.447   1.898  0.6810  0.2885 -1.2259
 2974SOL    HW1 9057   4.818   0.538   1.871 -0.1874 -0.4663 -3.5614
 2974SOL    HW2 9058   4.842   0.452   1.993 -1.6845  2.6228 -0.9527
 2975SOL     OW 9059   0.396   4.750   1.715 -0.1311 -0.2491  0.5079
 2975SOL    HW1 9060   0.374   4.824   1.771  0.1501  0.6436 -0.5359
 2975SOL    HW2 9061   0.419   4.789   1.631 -2.7749 -1.6305 -1.0127
 2976SOL     OW 9062   0.954   4.712   0.028 -0.5846 -0.0830  0.3494
 2976SOL    HW1 9063   1.009   4.717   0.106  0.6767 -0.0963 -0.5091
 2976SOL    HW2 9064   1.013   4.681  -0.041 -1.5070  0.5629 -0.7620
 2977SOL     OW 9065   2.787   4.552   2.387 -0.4072 -0.2696  0.0002
 2977SOL    HW1 9066   2.798   4.607   2.464  1.1462  0.7105 -0.8800
 2977SOL    HW2 9067   2.735   4.605   2.327  0.9339  0.2020 -0.7781
 2978SOL     OW 9068   4.528   2.428   4.941 -0.3409  0.6087  0.5106
 2978SOL    HW1 9069   4.440   2.433   4.903  0.3126 -0.0316 -1.1892
 2978SOL    HW2 9070   4.547   2.334   4.945 -0.6458  0.5639  3.2294
 2979SOL     OW 9071   4.108   3.272   1.553 -0.1649 -0.0519  0.1948
 2979SOL    HW1 9072   4.202   3.290   1.546  0.0706 -0.6386  1.5039
 2979SOL    HW2 9073   4.068   3.324   1.484  1.3086 -1.3292 -1.7170
 2980SOL     OW 9074   0.565   1.072   2.280  0.0630 -0.5018  0.0874
 2980SOL    HW1 9075   0.633   1.137   2.298 -0.8467  0.5648 -0.2171
 2980SOL    HW2 9076   0.613   0.995   2.250  1.0594  0.8718 -2.0339
 2981SOL     OW 9077   1.751   0.946   2.211  0.1078  0.3437  0.4791
 2981SOL    HW1 9078   1.802   1.017   2.251 -0.1398 -0.1596  1.7482
 2981SOL    HW2 9079   1.775   0.949   2.118  1.4038  0.9989  0.8020
 2982SOL     OW 9080   2.857   3.387   2.604 -0.1210  0.5898 -0.7887
 2982SOL    HW1 9081   2.928   3.391   2.540  0.6191  3.2219  0.0722
 2982SOL    HW2 9082   2.840   3.293   2.615  3.2778 -0.1819 -0.9744
 2983SOL     OW 9083   0.352   0.396   3.062  0.7898 -0.4423  0.0149
 2983SOL    HW1 9084   0.349   0.427   2.971 -0.8729 -1.1387 -0.2117
 2983SOL    HW2 9085   0.445   0.396   3.084  1.1872  0.2963 -1.4919
 2984SOL     OW 9086   3.142   4.801   4.710  0.1317  0.3260 -0.0669
 2984SOL    HW1 9087   3.144   4.887   4.668 -1.4991  0.1156 -0.6444
 2984SOL    HW2 9088   3.068   4.805   4.770  0.4627 -0.4562  0.4115
 2985SOL     OW 9089   4.376   4.854   0.413 -0.0053  0.4207  0.0335
 2985SOL    HW1 9090   4.347   4.861   0.322  2.3367  0.0602 -0.8092
 2985SOL    HW2 9091   4.339   4.931   0.456  1.4268  2.3774 -2.0025
 2986SOL     OW 9092   1.814   1.907   4.436  0.2776 -0.1342 -0.3015
 2986SOL    HW1 9093   1.724   1.890   4.463  0.1105  1.2145  0.0512
 2986SOL    HW2 9094   1.861   1.924   4.518  0.3389  1.3804 -0.6109
 2987SOL     OW 9095   3.231   4.013   2.195 -0.1706  0.2982 -0.0588
 2987SOL    HW1 9096   3.147   3.993   2.155  1.6185 -4.0852 -2.3543
 2987SOL    HW2 9097   3.234   3.959   2.274  0.9182 -0.7017 -0.7468
 2988SOL     OW 9098   3.883   1.810   1.573  0.0080 -0.1412  0.1755
 2988SOL    HW1 9099   3.791   1.833   1.562 -0.6131 -3.1544 -2.0773
 2988SOL    HW2 9100   3.884   1.715   1.575  3.1595 -0.2209 -0.4249
 2989SOL     OW 9101   2.421   3.255   2.691 -0.2002 -0.1468 -0.0618
 2989SOL    HW1 9102   2.396   3.304   2.612  0.7962  2.0819  0.9156
 2989SOL    HW2 9103   2.342   3.258   2.746  0.3845  2.2196  0.7970
 2990SOL     OW 9104   0.540   0.689   3.010  0.2226 -0.0942 -0.3482
 2990SOL    HW1 9105   0.568   0.723   2.925 -0.9010  0.8044 -0.3802
 2990SOL    HW2 9106   0.512   0.767   3.059 -0.3082 -0.7392  0.3948
 2991SOL     OW 9107   0.439   4.487   1.748 -0.1074  0.0297  0.0310
 2991SOL    HW1 9108   0.495   4.477   1.824 -0.1876  0.0442  0.0921
 2991SOL    HW2 9109   0.431   4.581   1.735  2.7588  0.1372 -2.0993
 2992SOL     OW 9110   0.195   2.591   1.548  0.1401  0.4812 -0.1924
 2992SOL    HW1 9111   0.278   2.552   1.521 -0.7993 -1.3489 -0.5183
 2992SOL    HW2 9112   0.198   2.589   1.644 -0.2611 -1.2567 -0.1967
 2993SOL     OW 9113   3.427   4.846   2.536  0.5673  0.2113  0.0592
 2993SOL    HW1 9114   3.409   4.920   2.595 -0.1578 -0.5472  0.8139
 2993SOL    HW2 9115   3.522   4.831   2.546  0.7750  1.1932 -0.3078
 2994SOL     OW 9116   3.277   0.499   3.264  0.5151  0.5735 -0.0355
 2994SOL    HW1 9117   3.303   0.578   3.310  1.4943  0.7202 -0.8239
 2994SOL    HW2 9118   3.298   0.516   3.172 -1.5195  0.3482 -0.6058
 2995SOL     OW 9119   0.895   2.236   1.356 -0.6585 -0.5650 -0.1787
 2995SOL    HW1 9120   0.841   2.313   1.374  1.9711  1.4278 -0.2517
 2995SOL    HW2 9121   0.908   2.237   1.261  1.5177  0.5547  0.0611
 2996SOL     OW 9122   1.964   0.830   2.455  0.2037  0.0089  0.0751
 2996SOL    HW1 9123   1.935   0.918   2.431 -0.4774  0.4004  2.0830
 2996SOL    HW2 9124   2.029   0.845   2.523  0.0194 -1.0336  0.4962
 2997SOL     OW 9125   4.187   4.405   4.069  0.1186 -0.3266 -0.3507
 2997SOL    HW1 9126   4.257   4.470   4.061 -0.3611  0.4159  1.2180
 2997SOL    HW2 9127   4.232   4.321   4.060  1.1411  0.1454  0.1611
 2998SOL     OW 9128   3.182   0.572   1.769  0.3326  0.2037  0.1002
 2998SOL    HW1 9129   3.102   0.621   1.750  0.8467  0.4944 -1.4246
 2998SOL    HW2 9130   3.153   0.503   1.829 -1.2618 -0.2326 -1.0867
 2999SOL     OW 9131   1.528   2.270   2.043  0.0288 -0.4725  0.2151
 2999SOL    HW1 9132   1.475   2.285   2.122 -0.2013 -0.5522  0.0769
 2999SOL    HW2 9133   1.471   2.296   1.971 -0.0115 -1.0436  0.0355
 3000SOL     OW 9134   3.679   3.359   0.507  0.5367 -0.0035 -1.0104
 3000SOL    HW1 9135   3.630   3.390   0.583  2.7471  0.8806  0.1354
 3000SOL    HW2 9136   3.675   3.264   0.512  0.5446  0.0497  0.1439
 3001SOL     OW 9137   1.621   3.733   2.788 -0.2765 -0.2540 -0.0302
 3001SOL    HW1 9138   1.531   3.763   2.805  0.4447  2.6349 -0.7048
 3001SOL    HW2 9139   1.663   3.734   2.874 -0.1847  1.1724 -0.0674
 3002SOL     OW 9140   2.718   4.862   4.278 -0.5258  0.7383 -0.2475
 3002SOL    HW1 9141   2.775   4.787   4.297 -1.6586  0.4143  2.3709
 3002SOL    HW2 9142   2.714   4.866   4.183  1.5550 -0.9853 -0.4787
 3003SOL     OW 9143   0.456   4.543   2.721  0.0925 -0.0799 -0.8465
 3003SOL    HW1 9144   0.437   4.568   2.812  0.4119 -1.9400 -0.2133
 3003SOL    HW2 9145   0.425   4.617   2.669  1.3618  1.7648  0.8527
 3004SOL     OW 9146   3.519   4.903   4.532  0.7081  0.2347  0.4516
 3004SOL    HW1 9147   3.460   4.837   4.568  0.0424  1.5953  1.9714
 3004SOL    HW2 9148   3.562   4.941   4.609 -0.1031  2.6256 -0.1894
 3005SOL     OW 9149   2.778   2.414   2.179 -0.4066  0.2337  0.3899
 3005SOL    HW1 9150   2.856   2.458   2.213  0.4984 -1.4450  0.5930
 3005SOL    HW2 9151   2.717   2.413   2.254  1.8002 -3.9939  2.4537
 3006SOL     OW 9152   2.517   2.644   1.051 -0.3057 -0.3607 -0.2935
 3006SOL    HW1 9153   2.433   2.644   1.098 -0.3701  1.4378 -0.3646
 3006SOL    HW2 9154   2.514   2.564   0.998 -2.3407  0.0914 -0.9477
 3007SOL     OW 9155   3.176   0.683   1.442  0.4920 -0.5770  0.2483
 3007SOL    HW1 9156   3.209   0.760   1.489  0.7563 -0.8265  0.4703
 3007SOL    HW2 9157   3.082   0.681   1.463  0.2573  0.3162 -0.6385
 3008SOL     OW 9158   0.587   2.536   3.492  0.6412  0.0788 -0.1813
 3008SOL    HW1 9159   0.500   2.532   3.531  2.2761 -1.5665  3.8228
 3008SOL    HW2 9160   0.619   2.623   3.514  0.5766  0.1263 -0.2743
 3009SOL     OW 9161   0.987   2.474   0.268 -0.3519  0.3588 -0.0881
 3009SOL    HW1 9162   0.933   2.541   0.225 -1.2768  0.0455  0.5534
 3009SOL    HW2 9163   0.930   2.397   0.273  0.5530 -0.3507 -0.4320
 3010SOL     OW 9164   2.263   2.672   4.405 -0.5082 -0.1371 -0.2072
 3010SOL    HW1 9165   2.186   2.683   4.348 -0.7874 -1.5205 -0.1367
 3010SOL    HW2 9166   2.235   2.706   4.490 -1.7391 -2.3118  0.3250
 3011SOL     OW 9167   1.750   1.976   2.348 -0.2303 -0.5207  0.0100
 3011SOL    HW1 9168   1.845   1.972   2.353 -0.1992 -1.4033 -0.9513
 3011SOL    HW2 9169   1.731   2.007   2.260 -0.8273 -2.3836 -0.5616
 3012SOL     OW 9170   3.371   3.557   0.921  0.4815 -0.2657  0.1133
 3012SOL    HW1 9171   3.421   3.638   0.937 -0.0356  0.0248  0.2762
 3012SOL    HW2 9172   3.279   3.584   0.928  0.2710 -1.4820  3.3094
 3013SOL     OW 9173   2.028   3.269   1.235  0.2346  0.4256  0.4950
 3013SOL    HW1 9174   2.028   3.281   1.330  1.9375 -0.3865  0.6215
 3013SOL    HW2 9175   2.010   3.356   1.200 -4.2884  0.1913  1.5068
 3014SOL     OW 9176   3.307   4.638   1.204  0.0749  0.4631 -0.1826
 3014SOL    HW1 9177   3.265   4.698   1.266  0.2088  1.3907 -0.9742
 3014SOL    HW2 9178   3.295   4.552   1.243 -2.1715  0.7269 -0.1429
 3015SOL     OW 9179   3.255   1.713   3.811  0.1486  0.2747  0.4709
 3015SOL    HW1 9180   3.200   1.772   3.864  0.4299 -0.1008  1.1931
 3015SOL    HW2 9181   3.196   1.682   3.743 -0.3477  0.4317  0.8159
 3016SOL     OW 9182   3.902   5.014   0.048 -0.9092 -0.0048  0.2419
 3016SOL    HW1 9183   3.837   4.947   0.029  1.5798 -2.5248 -0.0386
 3016SOL    HW2 9184   3.964   5.010  -0.025  0.2480  1.4099  1.0675
 3017SOL     OW 9185   1.331   2.326   0.529 -0.0890 -0.5071  0.7057
 3017SOL    HW1 9186   1.281   2.386   0.584  2.0403  0.3703  1.8314
 3017SOL    HW2 9187   1.422   2.338   0.558  1.2922  0.3739 -3.3712
 3018SOL     OW 9188   0.051   0.866   2.064 -0.0253 -0.1842 -0.4353
 3018SOL    HW1 9189   0.034   0.857   2.157 -1.4820  2.0558 -0.3957
 3018SOL    HW2 9190  -0.008   0.803   2.022  1.6689 -2.2369  0.1323
 3019SOL     OW 9191   4.611   1.061   1.537  0.1460 -0.5205  0.2401
 3019SOL    HW1 9192   4.631   1.137   1.591  0.1630 -0.7872  0.6163
 3019SOL    HW2 9193   4.523   1.035   1.563  0.1952 -0.7133  0.2187
 3020SOL     OW 9194   2.047   2.100   4.057  0.2454  0.0018 -0.5708
 3020SOL    HW1 9195   2.040   2.054   3.973  2.3986 -0.7275 -0.3996
 3020SOL    HW2 9196   2.134   2.078   4.090 -0.5182  0.2790  1.8729
 3021SOL     OW 9197   4.279   2.603   2.379 -0.0731  0.1601 -0.3951
 3021SOL    HW1 9198   4.229   2.601   2.297 -2.5119 -0.9779  0.9987
 3021SOL    HW2 9199   4.219   2.644   2.442  2.0491  1.8121  0.6987
 3022SOL     OW 9200   4.859   5.004   0.008  0.0128 -0.1725  0.2030
 3022SOL    HW1 9201   4.866   5.054   0.089  0.2737  1.6407 -0.8936
 3022SOL    HW2 9202   4.950   4.987  -0.017 -0.0653 -1.9490  0.9618
 3023SOL     OW 9203   3.070   0.972   2.304 -0.2875  0.2536 -0.0262
 3023SOL    HW1 9204   3.061   0.882   2.274 -3.8001  0.1012  1.0293
 3023SOL    HW2 9205   2.994   0.986   2.360 -0.8502  4.3912 -1.4887
 3024SOL     OW 9206   2.854   0.519   2.738  0.3835  0.7864  0.3293
 3024SOL    HW1 9207   2.793   0.445   2.730  0.7128  0.6442 -1.1390
 3024SOL    HW2 9208   2.864   0.552   2.649  4.2293 -0.6535  0.0523
 3025SOL     OW 9209   1.483   1.610   1.210  0.1884 -0.1529  0.0233
 3025SOL    HW1 9210   1.488   1.677   1.279  0.6765  1.1654 -1.2369
 3025SOL    HW2 9211   1.492   1.659   1.129 -0.0107 -1.7154 -0.9809
 3026SOL     OW 9212   1.645   2.236   1.047  0.3814  0.0163 -0.6996
 3026SOL    HW1 9213   1.556   2.264   1.027  1.1737  1.7089 -2.0945
 3026SOL    HW2 9214   1.700   2.286   0.988  2.1295 -2.7823 -1.6491
 3027SOL     OW 9215   3.675   4.016   3.700 -0.4359 -0.1113 -0.2583
 3027SOL    HW1 9216   3.591   3.971   3.704 -0.0670 -0.7553  2.6114
 3027SOL    HW2 9217   3.727   3.965   3.639 -0.7432 -2.4099  1.2536
 3028SOL     OW 9218   3.493   0.201   4.413  0.3486 -0.2372 -0.0578
 3028SOL    HW1 9219   3.446   0.134   4.461  1.0999 -0.6902  0.0619
 3028SOL    HW2 9220   3.537   0.253   4.480 -0.5673  0.6594 -0.1186
 3029SOL     OW 9221   1.492   1.102   3.990 -0.3692 -0.3962  0.1686
 3029SOL    HW1 9222   1.456   1.044   3.923  1.2679  1.5055 -2.5455
 3029SOL    HW2 9223   1.587   1.097   3.979 -0.0880  0.6804  1.7450
 3030SOL     OW 9224   4.848   4.520   1.524 -0.2225 -0.8763  0.0591
 3030SOL    HW1 9225   4.910   4.593   1.515  2.1433 -2.7284  0.2737
 3030SOL    HW2 9226   4.842   4.482   1.436  0.1781 -1.6154  0.3382
 3031SOL     OW 9227   3.739   2.346   1.184 -0.1218 -0.6902  0.5613
 3031SOL    HW1 9228   3.694   2.375   1.105 -0.1361 -2.9661 -0.3538
 3031SOL    HW2 9229   3.684   2.276   1.219  2.9747 -4.4310 -1.2505
 3032SOL     OW 9230   4.722   3.390   2.940 -0.3851  0.3011  0.1588
 3032SOL    HW1 9231   4.788   3.328   2.970 -1.2874 -0.3303  0.8801
 3032SOL    HW2 9232   4.768   3.474   2.937  0.4038 -0.0982  0.8052
 3033SOL     OW 9233   2.204   0.693   1.704 -0.3040  0.4777 -0.0119
 3033SOL    HW1 9234   2.254   0.629   1.653  1.3532  0.2003  1.8573
 3033SOL    HW2 9235   2.135   0.641   1.745 -2.6782  0.9496 -3.0330
 3034SOL     OW 9236   4.951   1.697   1.675  0.5408  0.9590 -0.1994
 3034SOL    HW1 9237   4.913   1.745   1.748  0.0619  0.7895 -0.3323
 3034SOL    HW2 9238   4.961   1.607   1.707  0.0257  0.8088 -0.4414
 3035SOL     OW 9239   1.011   0.401   4.373  0.2898  0.3434  0.5959
 3035SOL    HW1 9240   1.080   0.388   4.308  0.7357  3.2621  0.3390
 3035SOL    HW2 9241   1.025   0.332   4.438  0.0810 -2.4238 -2.1095
 3036SOL     OW 9242   4.456   3.639   2.949  0.4929 -0.4094  0.3594
 3036SOL    HW1 9243   4.540   3.593   2.944 -0.4342 -2.5232  2.3802
 3036SOL    HW2 9244   4.398   3.579   2.996 -1.8740  1.4116 -0.0215
 3037SOL     OW 9245   0.279   1.858   3.254 -0.2304  0.2424  0.0020
 3037SOL    HW1 9246   0.361   1.904   3.270 -0.5960  0.4324  1.5426
 3037SOL    HW2 9247   0.306   1.770   3.227  0.4640  0.5707 -0.4051
 3038SOL     OW 9248   1.135   4.261   2.215  0.1624  0.4752 -0.8224
 3038SOL    HW1 9249   1.174   4.292   2.296  0.3475 -0.6544 -0.4659
 3038SOL    HW2 9250   1.041   4.276   2.227  0.1564  0.0228 -0.2647
 3039SOL     OW 9251   4.760   0.723   4.921 -0.0160  0.3401 -0.0075
 3039SOL    HW1 9252   4.695   0.790   4.899 -2.0535 -1.7160 -0.6104
 3039SOL    HW2 9253   4.738   0.649   4.866 -0.3530 -2.2602  3.3266
 3040SOL     OW 9254   0.297   4.598   3.499  0.0896  0.5258 -0.6190
 3040SOL    HW1 9255   0.346   4.621   3.578 -1.0084 -0.7230  0.4753
 3040SOL    HW2 9256   0.259   4.681   3.469  3.7000  1.7788 -2.2002
 3041SOL     OW 9257   2.104   1.185   3.121 -0.0697 -0.1689  0.7203
 3041SOL    HW1 9258   2.107   1.258   3.183 -0.3679  0.1597  0.3495
 3041SOL    HW2 9259   2.132   1.223   3.038 -1.2147 -0.2397  0.2981
 3042SOL     OW 9260   2.941   5.015   3.124 -0.2824 -0.7247 -0.2854
 3042SOL    HW1 9261   2.945   5.069   3.203  1.7960 -0.9601 -0.1691
 3042SOL    HW2 9262   2.973   4.929   3.152  0.6867 -0.7552 -1.3962
 3043SOL     OW 9263   3.900   1.601   3.738  0.3652  0.0564 -0.4480
 3043SOL    HW1 9264   3.864   1.513   3.747 -0.9906  0.4901 -1.2171
 3043SOL    HW2 9265   3.941   1.619   3.823  1.0109 -1.4428 -0.4168
 3044SOL     OW 9266   3.690   0.276   0.984  0.0625 -0.0419 -0.4377
 3044SOL    HW1 9267   3.620   0.329   1.020 -0.0133 -0.0472 -0.5758
 3044SOL    HW2 9268   3.655   0.242   0.901 -0.7337 -2.1116  0.6747
 3045SOL     OW 9269   4.932   2.580   3.128  0.0756  0.1187  0.1565
 3045SOL    HW1 9270   4.908   2.517   3.060  0.8573  0.4988 -0.5037
 3045SOL    HW2 9271   4.969   2.528   3.199 -0.3742 -0.2542  0.1154
 3046SOL     OW 9272   0.724   0.331   4.352  0.2214 -0.3530  0.1406
 3046SOL    HW1 9273   0.815   0.360   4.344 -0.4028  2.4902  1.9016
 3046SOL    HW2 9274   0.688   0.340   4.264  1.4249 -0.8521 -0.4323
 3047SOL     OW 9275   0.553   2.341   0.805  0.0841  0.6945 -0.1055
 3047SOL    HW1 9276   0.459   2.358   0.806 -0.2756 -1.0649 -0.4737
 3047SOL    HW2 9277   0.583   2.366   0.892 -1.4148 -1.9784  1.2898
 3048SOL     OW 9278   4.989   1.450   3.412 -0.5004  0.3529 -0.1407
 3048SOL    HW1 9279   4.944   1.477   3.332 -0.0853 -0.2881 -0.5924
 3048SOL    HW2 9280   5.053   1.519   3.428  0.4498 -0.2539 -1.2080
 3049SOL     OW 9281   3.809   2.497   0.759  0.2761 -0.4253  0.5430
 3049SOL    HW1 9282   3.864   2.434   0.712  0.9924 -0.1180  0.9674
 3049SOL    HW2 9283   3.853   2.510   0.843 -2.0267 -2.5142  2.2223
 3050SOL     OW 9284   4.382   3.400   0.006 -0.5128  0.0491  0.5257
 3050SOL    HW1 9285   4.462   3.348  -0.001  1.3843  2.7118  0.8382
 3050SOL    HW2 9286   4.312   3.335   0.018  1.2133 -2.5432 -2.0008
 3051SOL     OW 9287   3.532   3.608   1.282 -0.3001  0.6038  0.7358
 3051SOL    HW1 9288   3.445   3.639   1.259 -0.8769 -0.1781  1.7875
 3051SOL    HW2 9289   3.520   3.558   1.362  0.6512 -1.9241 -0.5768
 3052SOL     OW 9290   4.497   2.646   4.690 -0.2846  0.5528  0.2008
 3052SOL    HW1 9291   4.559   2.655   4.762  1.0265 -1.3946 -0.6172
 3052SOL    HW2 9292   4.441   2.573   4.716 -0.9956  1.0313  0.0472
 3053SOL     OW 9293   1.754   1.109   3.865 -0.5256 -0.1323 -0.5601
 3053SOL    HW1 9294   1.820   1.175   3.888  0.5205 -1.2154 -0.3538
 3053SOL    HW2 9295   1.748   1.115   3.769 -1.9200  1.5963 -0.4204
 3054SOL     OW 9296   4.635   4.756   0.578 -0.6458  0.4638  0.4772
 3054SOL    HW1 9297   4.723   4.724   0.556 -1.3585 -1.3214  0.0489
 3054SOL    HW2 9298   4.651   4.827   0.640  1.2183  2.3288 -1.9355
 3055SOL     OW 9299   3.793   3.612   4.495 -0.1364  0.0709  0.2641
 3055SOL    HW1 9300   3.706   3.636   4.465 -0.6631 -1.0769  0.7837
 3055SOL    HW2 9301   3.846   3.609   4.415 -0.2185  2.0716  0.1009
 3056SOL     OW 9302   2.428   2.949   4.633  0.1090 -0.0954  0.0715
 3056SOL    HW1 9303   2.468   2.865   4.610  1.3091  0.7551 -1.2202
 3056SOL    HW2 9304   2.344   2.949   4.588 -0.7363 -1.3126  1.5836
 3057SOL     OW 9305   2.027   3.578   0.009  0.4233 -0.0181 -0.4806
 3057SOL    HW1 9306   2.029   3.672  -0.010  1.5096  0.0455 -0.1334
 3057SOL    HW2 9307   1.934   3.557   0.016  0.0784  0.6086 -2.5537
 3058SOL     OW 9308   4.872   2.421   1.058  0.2051 -0.1198 -0.1293
 3058SOL    HW1 9309   4.827   2.406   1.141  0.1684 -1.9415 -0.4355
 3058SOL    HW2 9310   4.906   2.511   1.065 -3.8298  1.5866 -0.0754
 3059SOL     OW 9311   3.210   2.900   2.844 -0.7867  0.6984  0.0427
 3059SOL    HW1 9312   3.255   2.821   2.812 -1.2648  1.3741 -2.5106
 3059SOL    HW2 9313   3.118   2.875   2.847 -0.9158  1.0973 -0.5771
 3060SOL     OW 9314   0.832   0.846   0.597 -1.0878 -0.2950  0.9528
 3060SOL    HW1 9315   0.874   0.888   0.673  1.7703 -0.2845 -0.5018
 3060SOL    HW2 9316   0.844   0.753   0.612 -0.3717 -0.2882  0.4710
 3061SOL     OW 9317   4.741   0.661   3.229 -0.0388 -0.5913 -0.0964
 3061SOL    HW1 9318   4.678   0.597   3.195  0.4462 -0.4535 -1.3209
 3061SOL    HW2 9319   4.765   0.628   3.316 -0.2561 -1.7488 -0.4564
 3062SOL     OW 9320   2.064   2.009   3.597  0.0812  0.0480 -0.6305
 3062SOL    HW1 9321   2.051   2.024   3.503 -1.4460 -3.6931 -1.2112
 3062SOL    HW2 9322   2.157   1.985   3.604 -0.3835 -2.4126 -1.8000
 3063SOL     OW 9323   2.716   0.062   1.036 -0.6752 -0.1444 -0.1291
 3063SOL    HW1 9324   2.679  -0.026   1.031  1.8781 -1.3575  0.7046
 3063SOL    HW2 9325   2.777   0.067   0.962 -0.3899  0.7305  0.1480
 3064SOL     OW 9326   3.523   2.205   2.840  0.0149 -0.6417  0.0004
 3064SOL    HW1 9327   3.580   2.277   2.815  0.4077 -0.9712 -0.0550
 3064SOL    HW2 9328   3.571   2.126   2.816 -0.3667 -0.9266  0.1558
 3065SOL     OW 9329   2.856   4.640   4.386  0.2948  0.0792  0.2750
 3065SOL    HW1 9330   2.868   4.610   4.476  1.3885 -0.0258  0.1056
 3065SOL    HW2 9331   2.880   4.565   4.332 -3.0054 -0.8437 -0.1458
 3066SOL     OW 9332   4.751   5.006   2.859 -0.3736 -0.2982  0.1559
 3066SOL    HW1 9333   4.741   5.044   2.946  0.0475 -0.5000  0.2998
 3066SOL    HW2 9334   4.846   4.995   2.849 -0.4597 -0.8829 -0.0640
 3067SOL     OW 9335   3.417   0.519   4.351  0.0147 -0.0482 -0.2071
 3067SOL    HW1 9336   3.347   0.555   4.406 -1.0251 -0.1749 -1.3871
 3067SOL    HW2 9337   3.403   0.424   4.352 -1.6062  0.0727 -2.6129
 3068SOL     OW 9338   3.496   2.731   3.377 -0.8184 -0.5981 -0.1352
 3068SOL    HW1 9339   3.463   2.701   3.292 -0.9168  2.1334 -1.1675
 3068SOL    HW2 9340   3.458   2.818   3.387  3.1025  1.2522  0.3390
 3069SOL     OW 9341   3.797   2.656   0.003 -1.2606  0.9101  0.3315
 3069SOL    HW1 9342   3.826   2.564   0.009 -0.1869  1.2621  0.7435
 3069SOL    HW2 9343   3.720   2.660   0.060 -0.6857  0.4986  1.1670
 3070SOL     OW 9344   2.488   2.611   1.998  0.2151  0.1987  1.0156
 3070SOL    HW1 9345   2.408   2.662   1.985  0.9304  1.0606 -0.0710
 3070SOL    HW2 9346   2.527   2.648   2.077  0.5659  1.1257  0.4147
 3071SOL     OW 9347   0.968   1.143   0.582 -0.2264  0.1408 -0.1163
 3071SOL    HW1 9348   0.878   1.140   0.549 -0.5457  0.9405  0.6237
 3071SOL    HW2 9349   0.967   1.087   0.660  0.6270 -2.0796 -1.6101
 3072SOL     OW 9350   1.151   0.100   3.261 -0.0127  0.0979 -0.4563
 3072SOL    HW1 9351   1.100   0.048   3.322  1.0303 -0.4961 -0.0569
 3072SOL    HW2 9352   1.238   0.105   3.301  0.6004 -0.0356 -1.7324
 3073SOL     OW 9353   5.009   1.953   1.635  0.2964  0.0503 -1.0779
 3073SOL    HW1 9354   5.014   1.857   1.628 -1.5523 -0.1415 -0.3874
 3073SOL    HW2 9355   4.951   1.979   1.564  2.0229  0.8683 -2.2425
 3074SOL     OW 9356   3.570   2.552   0.157 -0.2938  0.7558 -0.6415
 3074SOL    HW1 9357   3.629   2.564   0.232 -0.4152  1.3969 -0.6420
 3074SOL    HW2 9358   3.482   2.559   0.194 -0.3577  0.7081 -0.7844
 3075SOL     OW 9359   1.918   4.901   2.637 -0.2598  0.1934 -0.2947
 3075SOL    HW1 9360   1.974   4.911   2.714 -0.6269  1.2929 -0.1469
 3075SOL    HW2 9361   1.952   4.824   2.592 -0.3369 -0.7438  1.2125
 3076SOL     OW 9362   2.406   3.852   1.345  0.1569 -0.3995  0.1548
 3076SOL    HW1 9363   2.380   3.795   1.272 -0.3587  1.4891 -1.1941
 3076SOL    HW2 9364   2.490   3.888   1.317  0.8275 -0.9965  1.3252
 3077SOL     OW 9365   2.961   3.049   0.073 -0.5932 -0.7676  0.4114
 3077SOL    HW1 9366   3.023   3.051   0.001 -1.8367 -1.6933 -0.7430
 3077SOL    HW2 9367   3.013   3.022   0.149  1.0312  1.5496  0.2477
 3078SOL     OW 9368   2.534   4.247   3.976 -0.2899 -0.2239  0.2587
 3078SOL    HW1 9369   2.520   4.341   3.961  0.5904 -0.0905  0.2373
 3078SOL    HW2 9370   2.628   4.235   3.969 -0.3392 -1.0221  0.7949
 3079SOL     OW 9371   2.093   4.786   2.224 -0.5572 -0.5390  0.3309
 3079SOL    HW1 9372   2.050   4.871   2.212  1.2973  0.3164 -0.6493
 3079SOL    HW2 9373   2.087   4.769   2.319 -1.0735  0.6031  0.5188
 3080SOL     OW 9374   3.842   2.142   2.171 -0.0880 -0.1581 -0.1442
 3080SOL    HW1 9375   3.893   2.218   2.201  0.6233 -1.0154  0.9077
 3080SOL    HW2 9376   3.868   2.131   2.080  0.3022  0.4593 -0.1183
 3081SOL     OW 9377   3.688   0.274   1.655 -0.0395  0.1709 -0.0923
 3081SOL    HW1 9378   3.780   0.276   1.681 -0.3842  0.4133  1.2259
 3081SOL    HW2 9379   3.674   0.357   1.609  1.2102 -1.3571 -3.5564
 3082SOL     OW 9380   2.439   0.922   3.673 -0.0693  0.1567  0.0651
 3082SOL    HW1 9381   2.409   0.862   3.605 -0.3585 -0.5239  0.7822
 3082SOL    HW2 9382   2.534   0.910   3.676  0.2736  1.9028 -1.8167
 3083SOL     OW 9383   4.014   3.100   3.973 -0.1850 -0.4974 -0.3141
 3083SOL    HW1 9384   4.075   3.173   3.981 -0.6688 -0.0537 -0.5909
 3083SOL    HW2 9385   4.063   3.033   3.926 -0.5185  0.5948 -2.3507
 3084SOL     OW 9386   4.077   3.389   3.871  0.5316 -0.0202  0.2060
 3084SOL    HW1 9387   4.063   3.392   3.777 -1.7640  0.9997  0.5050
 3084SOL    HW2 9388   4.090   3.480   3.896  1.6310 -0.3321  0.8436
 3085SOL     OW 9389   1.150   0.575   3.843  0.0787  1.0989 -0.2905
 3085SOL    HW1 9390   1.162   0.574   3.749 -0.2864  0.3934 -0.3308
 3085SOL    HW2 9391   1.187   0.659   3.871  0.1721  1.3158 -1.0570
 3086SOL     OW 9392   3.803   2.669   3.443 -0.0149  0.5586 -0.1371
 3086SOL    HW1 9393   3.784   2.661   3.537 -0.0515  0.9401 -0.1113
 3086SOL    HW2 9394   3.722   2.700   3.405 -0.4495 -0.9344 -0.5122
 3087SOL     OW 9395   5.038   0.803   4.609  0.2766 -0.2151  0.5815
 3087SOL    HW1 9396   4.944   0.788   4.619  0.2649 -0.7467 -0.1992
 3087SOL    HW2 9397   5.045   0.897   4.590 -0.3589 -0.5959 -1.9136
 3088SOL     OW 9398   2.973   3.921   3.162 -0.4554  0.2625  0.3838
 3088SOL    HW1 9399   2.988   3.843   3.109 -1.9622 -0.4570  0.9656
 3088SOL    HW2 9400   2.957   3.991   3.098  2.2836  0.4941 -0.1916
 3089SOL     OW 9401   1.572   0.462   2.620  0.2381  0.1593 -0.0420
 3089SOL    HW1 9402   1.545   0.525   2.687 -0.0202  0.3911 -0.3610
 3089SOL    HW2 9403   1.544   0.501   2.538  0.0478 -0.3934 -0.2416
 3090SOL     OW 9404   4.902   3.515   2.342  0.6089 -0.1243 -0.2401
 3090SOL    HW1 9405   4.921   3.422   2.354 -1.1009 -0.3557  1.1758
 3090SOL    HW2 9406   4.812   3.525   2.375  0.5605  1.9350 -0.8613
 3091SOL     OW 9407   3.677   3.100   4.354  0.2678 -0.3361  0.7082
 3091SOL    HW1 9408   3.608   3.034   4.363  1.5075 -1.6313  1.0112
 3091SOL    HW2 9409   3.733   3.068   4.284  0.1523  1.1074 -0.0838
 3092SOL     OW 9410   0.051   4.149   1.718 -0.1378  0.1831  0.3357
 3092SOL    HW1 9411  -0.028   4.156   1.772 -0.6112 -1.9499  0.0152
 3092SOL    HW2 9412   0.036   4.209   1.645 -0.7030  1.0664  1.1685
 3093SOL     OW 9413   0.333   3.488   0.958 -0.3214 -0.5229  0.1543
 3093SOL    HW1 9414   0.285   3.510   1.039  0.1345  0.2170  0.2317
 3093SOL    HW2 9415   0.419   3.528   0.970 -1.1611  2.2106 -1.9142
 3094SOL     OW 9416   4.552   4.452   3.062 -0.3052 -0.1399 -0.6125
 3094SOL    HW1 9417   4.554   4.485   3.152 -0.0496 -1.3820 -0.1482
 3094SOL    HW2 9418   4.641   4.421   3.045 -0.3421  0.1021 -1.3108
 3095SOL     OW 9419   4.037   2.851   1.386 -0.3990 -0.0915 -0.3399
 3095SOL    HW1 9420   3.959   2.901   1.412 -1.1736 -0.7892 -1.2677
 3095SOL    HW2 9421   4.013   2.810   1.303  0.8568 -0.5797 -0.4858
 3096SOL     OW 9422   3.334   2.704   1.176  0.1170 -0.1713  0.3729
 3096SOL    HW1 9423   3.282   2.644   1.230 -0.7943 -0.4986 -0.8089
 3096SOL    HW2 9424   3.284   2.786   1.178 -2.0610 -1.2190 -2.9210
 3097SOL     OW 9425   4.184   2.916   3.875  0.2920 -0.0810 -0.2122
 3097SOL    HW1 9426   4.232   2.977   3.931  0.2101  0.5151 -0.7675
 3097SOL    HW2 9427   4.252   2.870   3.826  0.3323  1.1177 -1.3662
 3098SOL     OW 9428   4.542   3.927   0.042 -0.1508  0.2388  0.2801
 3098SOL    HW1 9429   4.542   3.851  -0.016  1.8747  1.6280 -1.7101
 3098SOL    HW2 9430   4.559   4.001  -0.016  1.0487  1.8368  2.5391
 3099SOL     OW 9431   0.615   4.603   4.507 -0.3451  0.1299 -0.1686
 3099SOL    HW1 9432   0.656   4.645   4.582  0.2985 -1.5988  0.5088
 3099SOL    HW2 9433   0.525   4.586   4.535  0.1100 -1.2166  0.5449
 3100SOL     OW 9434   3.084   3.279   1.020  0.0911  0.6678  0.4579
 3100SOL    HW1 9435   3.061   3.254   1.110  1.0610  0.2944  0.6082
 3100SOL    HW2 9436   3.067   3.373   1.015 -1.8872  0.3533  0.4271
 3101SOL     OW 9437   2.127   1.453   3.770 -0.1558  0.3116  0.2785
 3101SOL    HW1 9438   2.086   1.400   3.701  0.2821 -1.2737  1.1763
 3101SOL    HW2 9439   2.220   1.428   3.766 -0.1423  0.1234  1.4859
 3102SOL     OW 9440   3.354   3.258   3.570 -0.3797  0.2328  0.1182
 3102SOL    HW1 9441   3.290   3.222   3.631 -0.8762  2.1380  0.8045
 3102SOL    HW2 9442   3.374   3.345   3.605  3.2835 -0.5887  0.4455
 3103SOL     OW 9443   1.374   3.202   1.523  0.9164  0.0361 -0.5166
 3103SOL    HW1 9444   1.363   3.240   1.610  1.3956 -0.3972 -0.2585
 3103SOL    HW2 9445   1.324   3.120   1.526  3.2318 -1.4589  0.3461
 3104SOL     OW 9446   3.008   4.280   1.949 -0.5234  0.5683  0.2264
 3104SOL    HW1 9447   3.095   4.267   1.987 -1.2076  1.9355  2.4358
 3104SOL    HW2 9448   2.952   4.219   1.997 -0.8786 -0.0511 -0.9372
 3105SOL     OW 9449   4.378   4.630   1.752 -0.4511  0.5271 -0.2508
 3105SOL    HW1 9450   4.418   4.572   1.688 -0.0920  0.4344  0.0582
 3105SOL    HW2 9451   4.451   4.674   1.794 -0.6958  0.7592 -0.0642
 3106SOL     OW 9452   4.309   3.001   2.323 -0.3372  0.3160  0.7620
 3106SOL    HW1 9453   4.233   2.983   2.266  0.3224 -1.2811  0.3204
 3106SOL    HW2 9454   4.271   3.035   2.404 -1.2762  3.5386 -0.8601
 3107SOL     OW 9455   3.252   2.105   4.733  0.2490 -0.1790 -0.8829
 3107SOL    HW1 9456   3.337   2.063   4.718 -0.8010 -3.2387  0.7219
 3107SOL    HW2 9457   3.238   2.096   4.827 -1.0507  2.0293 -0.8087
 3108SOL     OW 9458   4.545   3.784   2.324  0.4026 -0.1349  0.1598
 3108SOL    HW1 9459   4.613   3.843   2.292 -1.1416  2.6222  1.6400
 3108SOL    HW2 9460   4.586   3.740   2.399  0.5265  1.7162  1.2295
 3109SOL     OW 9461   4.910   2.279   0.318  0.0490  0.4066  0.3936
 3109SOL    HW1 9462   4.919   2.272   0.413 -0.2139  0.2476  0.4083
 3109SOL    HW2 9463   4.994   2.247   0.284 -0.1637 -0.3413  0.5489
 3110SOL     OW 9464   4.127   3.196   0.162  0.8956 -0.0494 -0.3883
 3110SOL    HW1 9465   4.073   3.251   0.218  1.5798  0.1728  0.0582
 3110SOL    HW2 9466   4.205   3.177   0.214  2.6215  2.0502 -2.0487
 3111SOL     OW 9467   3.509   0.971   3.257  0.2831  0.5303  0.5681
 3111SOL    HW1 9468   3.595   0.940   3.228  0.2655  0.7854  0.2226
 3111SOL    HW2 9469   3.447   0.908   3.220  0.2809  0.7025  0.2658
 3112SOL     OW 9470   4.574   4.460   0.633 -0.3260  0.1126 -0.6539
 3112SOL    HW1 9471   4.507   4.396   0.656  0.1590 -0.4717 -0.8551
 3112SOL    HW2 9472   4.528   4.544   0.636 -1.2932 -0.3537 -1.6933
 3113SOL     OW 9473   1.974   1.826   2.647 -0.4486 -0.7760 -0.3205
 3113SOL    HW1 9474   2.021   1.877   2.582  2.7998 -1.8790  0.9509
 3113SOL    HW2 9475   1.887   1.866   2.652  0.6715  2.1074 -2.0807
 3114SOL     OW 9476   2.635   3.550   4.344 -0.3032  0.0150 -0.2304
 3114SOL    HW1 9477   2.640   3.555   4.248  3.2416  1.2973 -0.1127
 3114SOL    HW2 9478   2.545   3.520   4.361 -0.8454 -1.0316 -3.9326
 3115SOL     OW 9479   1.335   4.739   4.586  0.2135  0.5375  0.2525
 3115SOL    HW1 9480   1.328   4.799   4.660 -1.5041 -0.8684  1.3385
 3115SOL    HW2 9481   1.245   4.709   4.571  0.8348 -0.8591 -1.0058
 3116SOL     OW 9482   1.390   2.769   1.300 -0.5136 -0.7581  0.1195
 3116SOL    HW1 9483   1.311   2.821   1.285  0.4463  0.2057 -2.0900
 3116SOL    HW2 9484   1.370   2.683   1.265 -0.7424 -0.6386 -0.0457
 3117SOL     OW 9485   2.143   4.064   3.613 -0.2006 -0.2730  0.9611
 3117SOL    HW1 9486   2.231   4.026   3.601 -0.6927 -1.7394  1.6458
 3117SOL    HW2 9487   2.146   4.147   3.566  0.7228 -1.4965 -1.3192
 3118SOL     OW 9488   3.555   2.151   1.509  0.3018 -0.4077  0.0452
 3118SOL    HW1 9489   3.493   2.191   1.448  1.8455  1.5068 -0.3529
 3118SOL    HW2 9490   3.620   2.109   1.452 -0.0316 -1.4903  0.4439
 3119SOL     OW 9491   2.769   3.267   3.937  0.0233 -0.9944 -0.3333
 3119SOL    HW1 9492   2.748   3.178   3.908 -1.5495 -0.5718 -0.5582
 3119SOL    HW2 9493   2.793   3.314   3.857 -0.5010 -0.8539 -0.4086
 3120SOL     OW 9494   3.138   0.888   1.074 -0.7118 -0.3553  0.6334
 3120SOL    HW1 9495   3.079   0.812   1.072  1.5441 -2.1850 -1.3963
 3120SOL    HW2 9496   3.214   0.859   1.124  1.3695 -0.5375 -2.3569
 3121SOL     OW 9497   2.884   2.926   0.976 -0.1821 -0.3322 -0.4258
 3121SOL    HW1 9498   2.876   2.858   0.909  1.3640 -0.7887 -0.2001
 3121SOL    HW2 9499   2.838   2.891   1.052 -0.7921 -0.4082 -0.8288
 3122SOL     OW 9500   2.002   3.828   1.287  0.4162 -0.4375  0.4201
 3122SOL    HW1 9501   2.033   3.919   1.281 -0.8309  0.1042  1.5991
 3122SOL    HW2 9502   1.914   3.835   1.324  0.1555 -2.1221  0.2044
 3123SOL     OW 9503   4.548   0.231   3.087  0.4701  0.7033 -0.9296
 3123SOL    HW1 9504   4.603   0.157   3.109 -0.5879 -0.3874 -1.7895
 3123SOL    HW2 9505   4.545   0.284   3.167 -1.2056 -1.7722  0.8056
 3124SOL     OW 9506   0.418  -0.007   3.712 -0.3043  0.0606  0.0302
 3124SOL    HW1 9507   0.356  -0.026   3.782  0.3129  0.5119  0.7095
 3124SOL    HW2 9508   0.420   0.089   3.707  0.9948  0.0772  0.6199
 3125SOL     OW 9509   1.947   0.784   0.628  0.0597 -0.0133 -0.2290
 3125SOL    HW1 9510   1.923   0.877   0.627 -0.6679 -0.1970 -0.0984
 3125SOL    HW2 9511   1.931   0.754   0.539  2.6220  0.5488 -0.9557
 3126SOL     OW 9512   0.282   1.052   0.112  0.3686 -0.0424 -0.4139
 3126SOL    HW1 9513   0.257   1.039   0.204  4.2314  0.3314  0.8368
 3126SOL    HW2 9514   0.289   0.964   0.076 -0.6663 -0.2014 -0.2750
 3127SOL     OW 9515   2.455   0.310   2.869 -0.1352  0.0368  1.0807
 3127SOL    HW1 9516   2.385   0.266   2.917  0.5501 -3.0472 -0.4464
 3127SOL    HW2 9517   2.536   0.280   2.912  0.3364  1.2857  1.0899
 3128SOL     OW 9518   3.033   1.061   4.279  0.0035 -0.6970  0.3688
 3128SOL    HW1 9519   3.030   0.981   4.227  0.0291 -0.1628 -0.4681
 3128SOL    HW2 9520   2.975   1.122   4.234  0.6447  0.0348  0.5069
 3129SOL     OW 9521   0.927   3.807   4.422  0.7689 -0.5109 -0.2922
 3129SOL    HW1 9522   0.859   3.761   4.371 -0.3211  2.0049 -1.2570
 3129SOL    HW2 9523   0.978   3.853   4.356 -1.5997  4.0936  0.6964
 3130SOL     OW 9524   3.125   2.565   0.652  0.3306  0.3887  0.0995
 3130SOL    HW1 9525   3.062   2.569   0.581 -1.5229 -1.6605  1.4855
 3130SOL    HW2 9526   3.117   2.649   0.697  0.6245  1.2047 -1.3422
 3131SOL     OW 9527   0.413   4.474   1.493 -0.2578  0.1865  0.2490
 3131SOL    HW1 9528   0.421   4.486   1.588 -0.0164 -4.5408  1.0919
 3131SOL    HW2 9529   0.503   4.466   1.462 -0.3595  1.0898 -0.3232
 3132SOL     OW 9530   4.897   3.403   4.401 -0.5501 -0.2858 -0.7058
 3132SOL    HW1 9531   4.807   3.433   4.394 -1.1190 -1.6900  0.1938
 3132SOL    HW2 9532   4.890   3.308   4.407  0.7785 -0.3038  2.1215
 3133SOL     OW 9533   0.910   4.967   4.261 -0.1425  0.0230 -0.0948
 3133SOL    HW1 9534   0.857   4.966   4.341 -1.4316 -0.3324 -0.9062
 3133SOL    HW2 9535   0.997   4.994   4.289  0.3669 -3.2909  1.9789
 3134SOL     OW 9536   1.483   4.969   2.822  0.8726 -0.2748  0.2627
 3134SOL    HW1 9537   1.420   4.946   2.890  1.3507  0.8560  1.1089
 3134SOL    HW2 9538   1.532   4.888   2.808 -2.3535 -2.0283 -2.3116
 3135SOL     OW 9539   4.273   3.151   4.984  0.1957  0.2715  0.0304
 3135SOL    HW1 9540   4.328   3.077   5.010  0.4512  0.4936  0.1304
 3135SOL    HW2 9541   4.215   3.166   5.059  1.5345  1.4870  0.8898
 3136SOL     OW 9542   4.536   0.354   4.565  0.4475  0.5088  0.1144
 3136SOL    HW1 9543   4.598   0.298   4.518  0.1942  1.2415 -1.1487
 3136SOL    HW2 9544   4.460   0.358   4.507 -0.6584 -0.0673  1.4584
 3137SOL     OW 9545   5.016   1.869   0.459  0.2086 -0.1042  0.2687
 3137SOL    HW1 9546   4.926   1.884   0.432 -0.1458 -0.6780  1.1047
 3137SOL    HW2 9547   5.022   1.774   0.470  1.0268 -0.1125 -0.1425
 3138SOL     OW 9548   0.869   3.796   0.093 -0.3329 -0.8973 -0.5227
 3138SOL    HW1 9549   0.933   3.739   0.134  0.9870 -0.6238 -2.1343
 3138SOL    HW2 9550   0.849   3.756   0.009 -0.9944 -0.0905 -0.7755
 3139SOL     OW 9551   1.572   0.209   2.526  0.2515 -0.1649 -0.4928
 3139SOL    HW1 9552   1.486   0.187   2.489  0.4448 -0.4643 -0.7713
 3139SOL    HW2 9553   1.556   0.288   2.577 -0.1230 -0.0190 -0.8233
 3140SOL     OW 9554   2.881   4.328   4.921 -0.1577  0.0544 -0.0002
 3140SOL    HW1 9555   2.816   4.378   4.970  1.6602  1.2005  1.3522
 3140SOL    HW2 9556   2.911   4.261   4.982  0.3110 -0.1208 -0.4191
 3141SOL     OW 9557   1.759   3.651   5.021  0.0583 -0.2765 -0.6215
 3141SOL    HW1 9558   1.801   3.733   4.997  0.5979 -0.1247  0.7279
 3141SOL    HW2 9559   1.756   3.600   4.940  0.4353  0.7509 -1.2990
 3142SOL     OW 9560   1.733   2.477   1.851  0.1192  0.0015  0.2390
 3142SOL    HW1 9561   1.684   2.550   1.813 -0.6405 -0.8793 -0.5552
 3142SOL    HW2 9562   1.668   2.427   1.899 -0.1449 -1.9075 -1.9027
 3143SOL     OW 9563   3.912   1.836   0.883  0.0744  0.0963  0.2554
 3143SOL    HW1 9564   3.854   1.768   0.916 -0.1344  1.0946  2.0558
 3143SOL    HW2 9565   3.877   1.859   0.797 -1.6111 -0.0156  0.8857
 3144SOL     OW 9566   0.992   4.681   0.731 -0.2762  0.0341  0.1008
 3144SOL    HW1 9567   0.916   4.645   0.777 -0.7777  1.6804  0.6340
 3144SOL    HW2 9568   0.995   4.773   0.759  1.2230  0.2883 -0.8204
 3145SOL     OW 9569   2.739   4.235   4.341 -0.4792 -0.0533 -0.2428
 3145SOL    HW1 9570   2.661   4.195   4.381  0.3844 -1.5830 -0.0344
 3145SOL    HW2 9571   2.792   4.262   4.416 -0.3266  0.0331 -0.3828
 3146SOL     OW 9572   3.748   0.008   3.704  0.4873 -0.1247 -0.0290
 3146SOL    HW1 9573   3.789   0.094   3.694  0.2664  0.2208  1.6382
 3146SOL    HW2 9574   3.819  -0.048   3.735  0.4200 -0.3022 -0.2002
 3147SOL     OW 9575   4.232   2.629   3.746 -0.0208 -0.4730 -0.0854
 3147SOL    HW1 9576   4.193   2.556   3.697 -3.1675  1.6307 -1.0273
 3147SOL    HW2 9577   4.302   2.588   3.797 -1.9096 -4.2643 -0.1209
 3148SOL     OW 9578   4.681   1.109   2.707 -0.2821  0.1755 -0.4693
 3148SOL    HW1 9579   4.675   1.015   2.693 -0.7911 -0.2627  2.1098
 3148SOL    HW2 9580   4.762   1.121   2.756 -0.3665  1.0418 -0.5325
 3149SOL     OW 9581   4.931   1.169   2.852  0.5557 -0.4496 -0.2877
 3149SOL    HW1 9582   5.002   1.225   2.821  2.3146 -0.8258  2.6760
 3149SOL    HW2 9583   4.968   1.080   2.849 -0.8328 -1.0396 -1.2779
 3150SOL     OW 9584   1.849   2.402   0.945  0.0578 -0.5027  0.1000
 3150SOL    HW1 9585   1.943   2.411   0.926  0.4611 -0.4919  1.8815
 3150SOL    HW2 9586   1.817   2.492   0.951  0.2708 -0.4669  0.8793
 3151SOL     OW 9587   4.441   1.001   3.611 -0.5747 -0.4471 -0.9821
 3151SOL    HW1 9588   4.365   1.046   3.574 -0.0283  1.7627  0.3864
 3151SOL    HW2 9589   4.516   1.039   3.565 -0.1149 -0.0349  0.0594
 3152SOL     OW 9590   1.671   1.926   1.916 -0.5326 -1.1199 -0.2334
 3152SOL    HW1 9591   1.698   1.835   1.902  1.0320 -0.9253  1.2569
 3152SOL    HW2 9592   1.626   1.925   2.000  2.6696 -0.0138  1.6688
 3153SOL     OW 9593   0.101   3.148   0.670  0.8634 -0.1901  0.4463
 3153SOL    HW1 9594   0.121   3.115   0.582 -0.0471 -2.2887  0.9576
 3153SOL    HW2 9595   0.028   3.209   0.657  1.3658  0.2682 -0.3362
 3154SOL     OW 9596   3.625   4.003   2.711  0.1785 -0.2077 -0.1046
 3154SOL    HW1 9597   3.683   4.007   2.635  0.9248 -1.3938  0.3802
 3154SOL    HW2 9598   3.681   4.030   2.784 -0.5546  1.0085  0.0463
 3155SOL     OW 9599   0.795   1.236   5.000  0.1993 -0.3717 -0.3212
 3155SOL    HW1 9600   0.862   1.277   5.054  1.5794 -0.7826 -1.6581
 3155SOL    HW2 9601   0.723   1.299   4.999  1.3454  0.9872 -0.4276
 3156SOL     OW 9602   1.947   4.032   1.865  0.5436 -0.5458  0.0532
 3156SOL    HW1 9603   2.015   4.007   1.928 -0.5841  1.2223  2.0653
 3156SOL    HW2 9604   1.994   4.082   1.798  1.3470  0.0568  1.0388
 3157SOL     OW 9605   2.936   3.365   3.076  0.7101 -0.7659  0.5175
 3157SOL    HW1 9606   2.874   3.299   3.108  0.8175 -1.7524 -1.2076
 3157SOL    HW2 9607   3.022   3.326   3.090  0.7742 -1.0329 -0.5509
 3158SOL     OW 9608   3.951   0.369   4.378 -0.5208  0.3890 -0.2847
 3158SOL    HW1 9609   4.007   0.305   4.424 -1.0378 -0.5446 -0.9297
 3158SOL    HW2 9610   3.977   0.362   4.287 -0.2154  1.5076 -0.2997
 3159SOL     OW 9611   1.972   0.820   3.095 -0.4788  0.1445  0.1507
 3159SOL    HW1 9612   1.971   0.897   3.038  1.6809  0.5832  0.6244
 3159SOL    HW2 9613   2.032   0.759   3.053 -0.7639 -0.5376  0.7108
 3160SOL     OW 9614   2.589   2.919   1.008  0.1235 -0.0178  0.4171
 3160SOL    HW1 9615   2.672   2.962   0.988 -0.6145  1.0348 -0.5580
 3160SOL    HW2 9616   2.541   2.984   1.061 -0.8389  0.2070 -0.7025
 3161SOL     OW 9617   2.131   1.644   3.966  0.5291 -0.4193 -0.4856
 3161SOL    HW1 9618   2.164   1.572   3.913 -0.3697 -1.1722 -0.0522
 3161SOL    HW2 9619   2.111   1.604   4.051  0.0123  0.3309 -0.2409
 3162SOL     OW 9620   4.766   1.211   4.384 -0.0232 -0.0607 -0.4283
 3162SOL    HW1 9621   4.817   1.288   4.361 -3.0736  2.7054  1.2485
 3162SOL    HW2 9622   4.753   1.165   4.301  1.5024  1.4482 -1.5710
 3163SOL     OW 9623   4.101   3.341   2.673  0.0708 -0.6711 -0.2858
 3163SOL    HW1 9624   4.134   3.429   2.657 -2.9474  0.9112  1.2744
 3163SOL    HW2 9625   4.140   3.315   2.757 -0.7527  0.1670  0.3697
 3164SOL     OW 9626   1.919   2.426   2.592  0.2200 -0.8431 -0.2733
 3164SOL    HW1 9627   1.935   2.496   2.656 -1.8803  0.7411 -1.3624
 3164SOL    HW2 9628   1.988   2.437   2.527  0.9100 -0.9180  0.4196
 3165SOL     OW 9629   4.852   3.045   2.817 -0.3663  0.3528  0.3583
 3165SOL    HW1 9630   4.943   3.049   2.846 -0.6536  1.3418  1.2065
 3165SOL    HW2 9631   4.812   2.976   2.870 -0.2045  0.2001  0.2792
 3166SOL     OW 9632   1.056   3.350   3.263 -0.0839 -0.5894  0.0520
 3166SOL    HW1 9633   1.035   3.258   3.247  1.4486 -0.8457 -0.7135
 3166SOL    HW2 9634   1.045   3.392   3.178  4.7247 -1.2741 -1.2479
 3167SOL     OW 9635   3.098   3.071   3.742  0.2296  0.3548 -0.0615
 3167SOL    HW1 9636   3.050   3.011   3.799  2.1224  1.4047  2.8606
 3167SOL    HW2 9637   3.189   3.043   3.749  0.9480  2.5622  0.1590
 3168SOL     OW 9638   0.194   3.325   1.366 -0.1386  0.4797 -0.2046
 3168SOL    HW1 9639   0.273   3.271   1.369 -0.1742  0.3107 -1.5809
 3168SOL    HW2 9640   0.184   3.358   1.455  1.1578  0.0411  0.1248
 3169SOL     OW 9641   2.180   3.030   4.058  0.5899  0.4950  0.6080
 3169SOL    HW1 9642   2.213   2.941   4.047  0.2526  0.2666  1.3783
 3169SOL    HW2 9643   2.244   3.072   4.115 -0.9576 -0.2888  3.0426
 3170SOL     OW 9644   2.112   2.760   0.201 -0.7115 -0.0892  0.4487
 3170SOL    HW1 9645   2.134   2.673   0.168 -0.6227  0.3463 -0.7022
 3170SOL    HW2 9646   2.056   2.744   0.277 -1.0269 -1.1556  0.0053
 3171SOL     OW 9647   4.156   1.960   4.101 -0.2099 -0.2686  0.0532
 3171SOL    HW1 9648   4.160   1.919   4.015  0.8546 -0.2897  0.0983
 3171SOL    HW2 9649   4.082   1.919   4.144  0.3999 -1.6544 -0.1595
 3172SOL     OW 9650   2.691   3.969   0.457  0.0666  0.4313  0.1891
 3172SOL    HW1 9651   2.688   3.878   0.429 -1.4343  0.5457 -0.1010
 3172SOL    HW2 9652   2.606   3.985   0.497  0.4410  1.6082  0.5645
 3173SOL     OW 9653   1.313   0.826   3.203 -0.2593 -0.0161 -0.5634
 3173SOL    HW1 9654   1.366   0.847   3.280  2.1909  1.0509 -2.4067
 3173SOL    HW2 9655   1.259   0.752   3.231 -0.8885  1.5193  2.7234
 3174SOL     OW 9656   0.431   1.615   1.364  0.1864  0.0193 -0.2803
 3174SOL    HW1 9657   0.509   1.583   1.319 -0.3198  1.2524 -2.1389
 3174SOL    HW2 9658   0.363   1.614   1.298 -1.9266 -2.6860  1.7128
 3175SOL     OW 9659   3.104   2.230   3.991 -0.4131 -0.2664 -0.0468
 3175SOL    HW1 9660   3.133   2.149   4.033 -1.5010 -1.4991 -1.5569
 3175SOL    HW2 9661   3.034   2.263   4.047  0.2804 -0.1654  0.7703
 3176SOL     OW 9662   1.221   4.810   3.970  0.2130  0.1739 -0.0023
 3176SOL    HW1 9663   1.316   4.812   3.969  0.2437 -0.9672 -0.4202
 3176SOL    HW2 9664   1.197   4.745   3.905 -0.8656  0.5788 -0.0351
 3177SOL     OW 9665   4.583   1.350   1.520  0.1867  0.7522  0.7038
 3177SOL    HW1 9666   4.524   1.353   1.595 -1.2014 -0.3095 -0.3053
 3177SOL    HW2 9667   4.610   1.441   1.507 -1.4221  1.3079  1.0613
 3178SOL     OW 9668   2.073   0.568   2.817 -0.4215 -0.1397 -0.3414
 3178SOL    HW1 9669   2.004   0.538   2.758  0.1608 -1.2017 -0.5256
 3178SOL    HW2 9670   2.027   0.597   2.896 -1.1384  0.3074 -0.9155
 3179SOL     OW 9671   2.056   4.932   0.924  0.1759  0.5776 -0.2883
 3179SOL    HW1 9672   2.006   4.965   0.849 -2.9762  1.1928  1.8804
 3179SOL    HW2 9673   2.021   4.844   0.939  0.3605  0.6735  0.7875
 3180SOL     OW 9674   1.316   0.490   5.015  0.1839  0.0962  0.4419
 3180SOL    HW1 9675   1.297   0.565   5.071 -0.0770 -0.9556  1.7978
 3180SOL    HW2 9676   1.257   0.501   4.940  1.6086  2.3306 -0.4441
 3181SOL     OW 9677   2.544   4.835   3.269 -0.4892  0.2164  0.1123
 3181SOL    HW1 9678   2.573   4.865   3.355 -1.8359 -0.4531  0.8375
 3181SOL    HW2 9679   2.624   4.810   3.224  0.1724 -0.5863  1.6437
 3182SOL     OW 9680   4.876   3.497   4.117 -0.7478 -0.2733 -0.4536
 3182SOL    HW1 9681   4.898   3.550   4.194  0.8878 -0.2349 -0.9146
 3182SOL    HW2 9682   4.894   3.407   4.145 -0.8386 -0.3238 -0.5596
 3183SOL     OW 9683   0.586   3.241   3.948 -0.9892 -0.2131  0.7202
 3183SOL    HW1 9684   0.640   3.253   3.870 -0.2593  2.8097  1.5655
 3183SOL    HW2 9685   0.519   3.178   3.922 -0.0763 -0.1756 -1.9655
 3184SOL     OW 9686   3.762   3.968   4.122  0.1334 -0.1382  0.0922
 3184SOL    HW1 9687   3.698   3.994   4.189  0.5900 -0.2917  0.6011
 3184SOL    HW2 9688   3.751   3.873   4.114  3.2277 -1.0139  3.4438
 3185SOL     OW 9689   0.282   1.166   2.677  0.2441  0.6447 -0.0214
 3185SOL    HW1 9690   0.239   1.150   2.593  3.0058  1.5272 -1.7503
 3185SOL    HW2 9691   0.301   1.079   2.712 -0.5215  0.2648 -0.5362
 3186SOL     OW 9692   4.178   4.961   0.183 -0.2155  0.4501  0.0968
 3186SOL    HW1 9693   4.232   4.948   0.106  0.2190 -1.9491  0.7353
 3186SOL    HW2 9694   4.091   4.981   0.148  0.3822  1.2980 -0.9631
 3187SOL     OW 9695   4.280   2.036   1.953  0.3903 -0.0306  0.4286
 3187SOL    HW1 9696   4.296   2.129   1.939 -0.4620  0.0518 -0.1345
 3187SOL    HW2 9697   4.237   2.007   1.872  0.6428 -0.9155  0.5953
 3188SOL     OW 9698   2.929   3.202   3.554  0.0636 -0.4214  0.5641
 3188SOL    HW1 9699   2.983   3.130   3.588 -0.2488 -0.2015  1.5656
 3188SOL    HW2 9700   2.967   3.281   3.593  0.3261 -0.0422 -0.4312
 3189SOL     OW 9701   1.320   3.779   2.869  0.3653  0.5977  0.0236
 3189SOL    HW1 9702   1.273   3.783   2.785  0.8822 -0.5323 -0.3372
 3189SOL    HW2 9703   1.334   3.685   2.884  1.2752  0.8498  0.8211
 3190SOL     OW 9704   3.265   0.747   2.301 -0.5948  0.0168  0.1676
 3190SOL    HW1 9705   3.247   0.792   2.383 -0.4714 -0.7412  0.6186
 3190SOL    HW2 9706   3.179   0.714   2.273 -1.0406  2.1613 -1.1717
 3191SOL     OW 9707   3.314   0.214   2.275  0.3229  0.8488 -0.2595
 3191SOL    HW1 9708   3.370   0.188   2.202 -0.0368 -0.4659 -0.0913
 3191SOL    HW2 9709   3.261   0.136   2.294 -0.0114  1.3605  1.0135
 3192SOL     OW 9710   3.286   3.322   2.969 -0.2652  0.4739  0.2263
 3192SOL    HW1 9711   3.304   3.401   2.918 -2.0804  0.5200 -0.4081
 3192SOL    HW2 9712   3.297   3.250   2.907 -3.8392  0.6112 -0.7508
 3193SOL     OW 9713   1.304   3.947   1.420  0.1466  0.5297  0.0410
 3193SOL    HW1 9714   1.337   4.029   1.385  1.6086 -0.6933 -1.5645
 3193SOL    HW2 9715   1.323   3.881   1.353  1.1671 -1.5593  2.2156
 3194SOL     OW 9716   0.002   4.385   0.127 -0.2952 -0.6430  0.1067
 3194SOL    HW1 9717   0.089   4.424   0.139 -0.8896  0.7018  0.2880
 3194SOL    HW2 9718  -0.016   4.394   0.033 -1.2372  1.4123  0.4290
 3195SOL     OW 9719   0.904   0.726   3.601  0.1509 -0.2542  0.1854
 3195SOL    HW1 9720   0.850   0.677   3.540  0.9078 -1.8790  0.7742
 3195SOL    HW2 9721   0.994   0.708   3.574  0.4963 -0.8495  1.6401
 3196SOL     OW 9722   4.211   3.161   4.696  0.2485  0.3864 -0.1054
 3196SOL    HW1 9723   4.294   3.158   4.648  0.7087 -0.0662  0.7003
 3196SOL    HW2 9724   4.237   3.175   4.787 -0.6750  4.0116 -0.2250
 3197SOL     OW 9725   0.967   3.619   1.849 -0.1033 -0.1107  0.5791
 3197SOL    HW1 9726   0.889   3.566   1.865  0.1625 -0.5249  0.5076
 3197SOL    HW2 9727   1.041   3.561   1.869  0.2018  0.9761  3.0075
 3198SOL     OW 9728   1.584   1.903   2.962 -0.0333  0.2425 -0.1383
 3198SOL    HW1 9729   1.541   1.929   3.043 -0.5801  1.0553 -0.6807
 3198SOL    HW2 9730   1.612   1.813   2.978  0.9444  0.7695  1.3901
 3199SOL     OW 9731   3.937   3.866   0.612 -0.7950  0.6380 -0.3529
 3199SOL    HW1 9732   3.932   3.960   0.629 -0.4614  0.7442 -0.8319
 3199SOL    HW2 9733   3.863   3.848   0.554  0.4679  1.0425 -2.1732
 3200SOL     OW 9734   2.256   2.243  -0.002  0.9255  0.1033  0.5014
 3200SOL    HW1 9735   2.346   2.215   0.015  1.8637  1.2636 -1.9500
 3200SOL    HW2 9736   2.239   2.310   0.064  1.9092 -0.0398  0.9229
 3201SOL     OW 9737   1.763   0.633   0.150  0.4687 -0.6295  0.0324
 3201SOL    HW1 9738   1.699   0.641   0.220  0.3804 -2.4451  0.2224
 3201SOL    HW2 9739   1.715   0.657   0.071  0.9550  2.8536  0.6483
 3202SOL     OW 9740   0.829   2.260   3.215  0.2898 -0.8406 -0.3839
 3202SOL    HW1 9741   0.902   2.321   3.226  0.1446 -0.7935  0.3643
 3202SOL    HW2 9742   0.864   2.176   3.243  0.5400 -1.1611 -1.5704
 3203SOL     OW 9743   2.753   2.987   3.885 -0.8211  0.5697 -0.3640
 3203SOL    HW1 9744   2.819   2.921   3.862 -1.5553  0.0877 -1.1659
 3203SOL    HW2 9745   2.709   2.952   3.962 -0.9746  0.2847 -0.5785
 3204SOL     OW 9746   1.308   1.606   2.112  0.1756  0.3326 -0.2121
 3204SOL    HW1 9747   1.278   1.624   2.024  1.1316  0.9209 -0.4348
 3204SOL    HW2 9748   1.351   1.520   2.106 -0.9484 -0.2589 -0.0081
 3205SOL     OW 9749   4.057   4.428   0.870  0.4624 -0.3361 -0.8724
 3205SOL    HW1 9750   4.034   4.372   0.944 -1.0596 -0.2730 -1.2641
 3205SOL    HW2 9751   4.147   4.403   0.849  0.4254 -1.3831  0.0692
 3206SOL     OW 9752   2.444   4.061   0.570 -0.1622  0.1622 -0.0883
 3206SOL    HW1 9753   2.359   4.051   0.527 -0.2884 -0.2277  0.2526
 3206SOL    HW2 9754   2.424   4.071   0.663  0.2660 -2.8537  0.4440
 3207SOL     OW 9755   2.753   4.188   2.932  0.4763 -0.3002  0.2966
 3207SOL    HW1 9756   2.730   4.275   2.899  0.3643 -0.2173  0.5896
 3207SOL    HW2 9757   2.841   4.199   2.969 -0.2295  0.1386  1.9588
 3208SOL     OW 9758   3.606   2.391   0.926 -0.4586  0.0799  0.2286
 3208SOL    HW1 9759   3.605   2.319   0.862 -0.5444  0.6107 -0.3746
 3208SOL    HW2 9760   3.652   2.462   0.881 -1.8845  0.9937  0.1682
 3209SOL     OW 9761   4.297   2.510   0.690 -0.4994 -0.2401 -1.1046
 3209SOL    HW1 9762   4.312   2.604   0.689 -0.6418 -0.2174 -1.1230
 3209SOL    HW2 9763   4.378   2.472   0.657  1.3495 -0.3678  2.9577
 3210SOL     OW 9764   1.075   3.154   1.311  0.4155  0.1571 -0.4108
 3210SOL    HW1 9765   1.074   3.124   1.220  2.2420 -4.7552  0.8906
 3210SOL    HW2 9766   1.143   3.222   1.313 -2.4958  3.5991 -3.1920
 3211SOL     OW 9767   4.247   1.124   3.478 -0.0843  0.3891  0.2204
 3211SOL    HW1 9768   4.199   1.206   3.483 -0.9915  0.0036 -1.4575
 3211SOL    HW2 9769   4.278   1.120   3.388 -0.4602 -1.3225  0.1342
 3212SOL     OW 9770   0.793   0.994   1.583 -1.1307  0.4181 -0.0360
 3212SOL    HW1 9771   0.725   0.927   1.575  0.4978 -1.5619  1.5111
 3212SOL    HW2 9772   0.814   0.996   1.677  2.2155 -0.4712 -0.6473
 3213SOL     OW 9773   3.110   2.149   5.018 -0.1671  0.6230 -0.7093
 3213SOL    HW1 9774   3.036   2.117   4.966 -0.8771  3.1601 -1.4325
 3213SOL    HW2 9775   3.076   2.155   5.107 -0.4631  0.6467 -0.8220
 3214SOL     OW 9776   1.820   4.123   2.798 -0.3674 -0.4341  0.5643
 3214SOL    HW1 9777   1.909   4.088   2.808  0.4319  1.4759  0.7472
 3214SOL    HW2 9778   1.781   4.115   2.885 -0.8016 -2.2865  0.2240
 3215SOL     OW 9779   1.417   2.340   1.785  0.1112 -0.5457 -0.0850
 3215SOL    HW1 9780   1.471   2.409   1.746 -1.9095 -0.4271 -2.9866
 3215SOL    HW2 9781   1.470   2.260   1.776  1.4183  0.1579  0.9640
 3216SOL     OW 9782   0.471   2.873   4.075 -0.4256 -0.1573 -0.2944
 3216SOL    HW1 9783   0.394   2.898   4.126 -0.6368  0.2523 -0.8121
 3216SOL    HW2 9784   0.479   2.941   4.008  1.0548  0.4498  0.4376
 3217SOL     OW 9785   2.598   4.093   2.434 -0.4558 -0.2275 -0.2539
 3217SOL    HW1 9786   2.693   4.103   2.426 -0.2412 -2.7984 -1.8397
 3217SOL    HW2 9787   2.562   4.154   2.370  0.1832 -0.3771 -0.7628
 3218SOL     OW 9788   3.117   3.762   0.589  0.7153 -0.5494 -0.2680
 3218SOL    HW1 9789   3.066   3.829   0.544  0.2420 -2.3622 -2.6496
 3218SOL    HW2 9790   3.203   3.802   0.603 -0.8050  2.1285  2.7318
 3219SOL     OW 9791   0.525   0.584   3.625 -0.0710 -0.8498  0.8693
 3219SOL    HW1 9792   0.445   0.559   3.673 -0.5495  1.1496  1.2390
 3219SOL    HW2 9793   0.498   0.660   3.572  1.7211  0.3409  1.5582
 3220SOL     OW 9794   0.033   2.421   3.330 -0.7187  0.0869  0.3356
 3220SOL    HW1 9795  -0.059   2.397   3.345 -1.2300  1.3605 -0.4957
 3220SOL    HW2 9796   0.083   2.368   3.392 -1.8435 -1.9842 -0.4281
 3221SOL     OW 9797   3.121   4.466   4.297 -0.0635 -0.2123 -0.7665
 3221SOL    HW1 9798   3.202   4.517   4.289  0.4584 -0.8569  0.2593
 3221SOL    HW2 9799   3.149   4.378   4.321 -1.0253 -0.6916 -1.3251
 3222SOL     OW 9800   4.063   0.765   2.265 -0.8770  0.9154  0.3138
 3222SOL    HW1 9801   3.968   0.766   2.268 -0.8882  3.2122  0.7021
 3222SOL    HW2 9802   4.085   0.792   2.176 -0.6049  1.4997  0.5522
 3223SOL     OW 9803   1.931   1.683   3.754 -0.4882 -1.1280  0.2782
 3223SOL    HW1 9804   1.891   1.615   3.700  2.5741 -1.9042 -1.2726
 3223SOL    HW2 9805   1.987   1.634   3.815  0.1192 -0.0884  0.5698
 3224SOL     OW 9806   0.904   0.302   1.756  0.8078  0.7127 -0.6902
 3224SOL    HW1 9807   0.986   0.335   1.720 -0.2560  2.4987 -1.6760
 3224SOL    HW2 9808   0.850   0.284   1.679 -0.6758  2.2899 -0.1000
 3225SOL     OW 9809   0.474   2.510   2.976 -0.5768  0.4426 -0.0457
 3225SOL    HW1 9810   0.393   2.501   3.026 -0.0186  0.7474  0.9461
 3225SOL    HW2 9811   0.544   2.496   3.040  0.1585  0.5748 -0.7975
 3226SOL     OW 9812   1.890   1.350   3.056 -0.5627 -0.4242 -0.0593
 3226SOL    HW1 9813   1.942   1.271   3.064  1.8021  0.6183 -3.1916
 3226SOL    HW2 9814   1.951   1.421   3.076 -2.1404  0.7280  0.9315
 3227SOL     OW 9815   2.376   3.872   2.245  0.0633  0.5431 -0.2656
 3227SOL    HW1 9816   2.415   3.855   2.331 -2.6339  0.3264  1.0512
 3227SOL    HW2 9817   2.429   3.823   2.183  1.3424 -0.3391  1.4648
 3228SOL     OW 9818   0.013   4.510   3.539  0.0095 -0.3340 -0.4930
 3228SOL    HW1 9819   0.098   4.466   3.537  0.5281  0.6626 -1.4990
 3228SOL    HW2 9820  -0.043   4.455   3.485 -0.1037 -1.1745  0.4428
 3229SOL     OW 9821   3.351   3.741   1.696  0.2312  0.0632  0.4070
 3229SOL    HW1 9822   3.345   3.828   1.735  0.4069  0.1987  0.1324
 3229SOL    HW2 9823   3.411   3.693   1.753 -1.3026 -0.4743  1.6490
 3230SOL     OW 9824   5.009   2.346   0.841  0.0953  0.9132  0.1330
 3230SOL    HW1 9825   5.090   2.309   0.876 -0.1635  1.0698  0.9134
 3230SOL    HW2 9826   4.969   2.390   0.915 -0.6070  1.0132 -0.2992
 3231SOL     OW 9827   0.476   1.258   4.080 -0.6559 -0.1462  0.0398
 3231SOL    HW1 9828   0.388   1.222   4.084 -0.1793 -1.2379  1.1523
 3231SOL    HW2 9829   0.529   1.198   4.131  0.7380  0.5213 -0.5787
 3232SOL     OW 9830   4.732   2.142   2.454 -0.1667  0.0703 -0.1288
 3232SOL    HW1 9831   4.680   2.067   2.484 -1.1959  0.1429 -1.6345
 3232SOL    HW2 9832   4.768   2.179   2.535  1.2544 -2.6221  0.5906
 3233SOL     OW 9833   3.698   0.398   0.653 -0.2905 -0.0662  0.2783
 3233SOL    HW1 9834   3.669   0.307   0.652 -0.0807 -0.1298 -0.4892
 3233SOL    HW2 9835   3.786   0.396   0.615  0.1369  0.3288  1.1932
 3234SOL     OW 9836   1.511   2.314   2.804  0.1775  0.1559  0.1711
 3234SOL    HW1 9837   1.503   2.310   2.709 -4.9971 -0.3158  0.3328
 3234SOL    HW2 9838   1.508   2.408   2.824 -1.3765  0.2054 -0.1467
 3235SOL     OW 9839   4.970   0.271   1.139 -0.2924 -0.0078  0.1132
 3235SOL    HW1 9840   4.949   0.361   1.164  0.6095  0.5036 -0.9223
 3235SOL    HW2 9841   5.028   0.241   1.209 -0.9557  0.0439  0.7023
 3236SOL     OW 9842   0.656   2.541   2.655 -0.0699 -0.2279 -0.4585
 3236SOL    HW1 9843   0.702   2.494   2.586 -1.2795 -0.7477 -0.9424
 3236SOL    HW2 9844   0.641   2.476   2.723 -0.4806 -0.1869 -0.5036
 3237SOL     OW 9845   3.349   5.002   0.878  0.1076 -0.3651  0.3526
 3237SOL    HW1 9846   3.351   5.036   0.967 -1.6155 -1.1772  0.7458
 3237SOL    HW2 9847   3.364   4.908   0.888 -3.0543 -1.0015  0.1979
 3238SOL     OW 9848   4.683   1.327   0.803 -0.5561  0.7748  0.2528
 3238SOL    HW1 9849   4.677   1.379   0.883 -2.6358  0.4127  0.3870
 3238SOL    HW2 9850   4.656   1.239   0.830 -1.7337  0.7523 -0.9220
 3239SOL     OW 9851   3.703   0.396   4.301  0.3280  0.3872  0.4907
 3239SOL    HW1 9852   3.665   0.311   4.322  2.1880 -1.0352 -1.3834
 3239SOL    HW2 9853   3.797   0.386   4.319  0.9557  1.2042 -1.8393
 3240SOL     OW 9854   3.884   0.591   2.604  0.3383  0.6351  0.2654
 3240SOL    HW1 9855   3.905   0.670   2.553 -0.4715  0.9359  0.3942
 3240SOL    HW2 9856   3.804   0.613   2.651  0.4056 -0.0791  0.7243
 3241SOL     OW 9857   1.404   1.529   3.252  0.0561 -0.1074  0.2930
 3241SOL    HW1 9858   1.418   1.602   3.312  0.7227 -0.5223  0.6594
 3241SOL    HW2 9859   1.490   1.487   3.244 -0.2590 -0.7044 -0.1040
 3242SOL     OW 9860   1.759   0.899   1.944 -0.4470 -0.2436  0.0247
 3242SOL    HW1 9861   1.716   0.857   1.870 -1.9557 -0.5814  1.0554
 3242SOL    HW2 9862   1.805   0.828   1.988  1.2148  0.1104 -1.0538
 3243SOL     OW 9863   1.180   4.031   1.646  0.5182 -0.7745  0.3610
 3243SOL    HW1 9864   1.114   3.961   1.638 -0.9001  0.5584 -0.0879
 3243SOL    HW2 9865   1.243   4.012   1.576 -0.7950 -0.6711 -0.9128
 3244SOL     OW 9866   2.959   0.056   0.845  0.1344 -0.0624 -0.4773
 3244SOL    HW1 9867   2.931   0.135   0.799  2.6372  0.6059 -0.9599
 3244SOL    HW2 9868   3.023   0.015   0.787 -0.5683 -2.0820  0.0923
 3245SOL     OW 9869   2.445   2.375   0.975  0.0395  0.0791  0.1680
 3245SOL    HW1 9870   2.361   2.405   1.008 -0.4061  0.8139 -1.5556
 3245SOL    HW2 9871   2.422   2.313   0.905  0.9519 -1.3193  1.0545
 3246SOL     OW 9872   3.884   2.510   2.227 -0.9828 -0.0172  0.1508
 3246SOL    HW1 9873   3.829   2.453   2.173 -1.3307  2.6384 -2.5337
 3246SOL    HW2 9874   3.860   2.599   2.201  1.1991  1.3696  2.4207
 3247SOL     OW 9875   3.027   3.367   0.409  0.1068 -0.5776  0.2436
 3247SOL    HW1 9876   3.043   3.428   0.338 -0.9130 -1.2625 -0.6125
 3247SOL    HW2 9877   3.023   3.421   0.487 -0.7266  0.4552 -0.4899
 3248SOL     OW 9878   0.509   3.704   0.961 -0.3407  0.3494 -0.1698
 3248SOL    HW1 9879   0.449   3.739   0.896 -0.8519 -0.1759  0.0123
 3248SOL    HW2 9880   0.485   3.750   1.042 -1.3683 -0.7780  0.1881
 3249SOL     OW 9881   0.813   0.436   2.204 -0.1913  0.4090 -0.4428
 3249SOL    HW1 9882   0.862   0.491   2.266  0.0794 -0.3826  0.0549
 3249SOL    HW2 9883   0.847   0.348   2.218 -2.6734 -0.4172  0.8376
 3250SOL     OW 9884   4.996   1.130   0.125 -0.4216  0.0898  0.1565
 3250SOL    HW1 9885   5.033   1.047   0.094  0.9793  1.8899 -3.7715
 3250SOL    HW2 9886   5.070   1.176   0.164 -1.2334 -0.4838  2.4872
 3251SOL     OW 9887   3.352   4.685   3.581 -0.1921  0.1567  0.6265
 3251SOL    HW1 9888   3.447   4.676   3.574 -0.3378 -1.2490 -0.0094
 3251SOL    HW2 9889   3.335   4.777   3.564  0.9164  0.0288 -1.4993
 3252SOL     OW 9890   2.058   4.342   3.719  0.1808 -0.2049 -0.2878
 3252SOL    HW1 9891   1.995   4.276   3.690 -1.7821  1.9320 -1.2042
 3252SOL    HW2 9892   2.082   4.388   3.639  2.0379 -0.1855  0.2362
 3253SOL     OW 9893   0.066   4.901   4.523  0.5343 -0.6665 -0.3611
 3253SOL    HW1 9894   0.044   4.864   4.608  2.9034 -0.9416  0.2212
 3253SOL    HW2 9895   0.140   4.960   4.542  0.3950  0.1149 -2.0721
 3254SOL     OW 9896   3.293   1.347   3.334 -0.1746  0.6321 -0.2016
 3254SOL    HW1 9897   3.233   1.419   3.353 -0.1655  0.5054  0.3003
 3254SOL    HW2 9898   3.272   1.322   3.244 -1.7450 -0.2550  0.3836
 3255SOL     OW 9899   3.207   3.512   4.575  0.0594  0.2062  0.4485
 3255SOL    HW1 9900   3.194   3.492   4.483 -0.6360 -3.1051  1.1531
 3255SOL    HW2 9901   3.120   3.512   4.613  0.4862 -0.9535  1.5032
 3256SOL     OW 9902   3.811   2.160   2.700  0.9470 -0.2707 -0.4288
 3256SOL    HW1 9903   3.774   2.226   2.641 -0.3960 -0.3983  0.2309
 3256SOL    HW2 9904   3.903   2.154   2.674  0.8301  1.0298 -1.2553
 3257SOL     OW 9905   2.866   0.771   0.103 -0.1522 -0.0213  0.2355
 3257SOL    HW1 9906   2.910   0.778   0.187  1.7074 -1.2506 -0.5624
 3257SOL    HW2 9907   2.877   0.857   0.063 -0.1119  0.2421  0.8055
 3258SOL     OW 9908   4.894   0.348   4.157  0.6359  0.2739  0.5198
 3258SOL    HW1 9909   4.829   0.399   4.205  1.6168  0.7664  1.3467
 3258SOL    HW2 9910   4.971   0.346   4.214  0.7705 -1.7787  0.3240
 3259SOL     OW 9911   1.346   4.710   0.295 -0.4631  0.1725  0.3702
 3259SOL    HW1 9912   1.322   4.618   0.305  1.6623 -0.3548  1.1949
 3259SOL    HW2 9913   1.373   4.718   0.204 -0.2880 -0.1284  0.3935
 3260SOL     OW 9914   0.080   1.388   1.339 -0.8552 -0.1765 -0.0402
 3260SOL    HW1 9915   0.026   1.446   1.285  0.6330  0.6122 -0.7252
 3260SOL    HW2 9916   0.110   1.444   1.411 -1.1257 -0.6709  0.4666
 3261SOL     OW 9917   5.032   0.460   1.489  0.0612  0.1887 -0.7076
 3261SOL    HW1 9918   5.084   0.486   1.565  1.6718  1.9440 -2.2986
 3261SOL    HW2 9919   4.984   0.539   1.464 -0.3044 -0.2986 -1.6075
 3262SOL     OW 9920   1.842   0.365   1.543  0.6524  0.6497 -0.1451
 3262SOL    HW1 9921   1.832   0.385   1.636 -2.4387  0.4002 -0.3284
 3262SOL    HW2 9922   1.815   0.445   1.498 -0.6884 -0.1237 -0.7887
 3263SOL     OW 9923   2.679   3.222   1.770  0.0066  0.7633 -0.3307
 3263SOL    HW1 9924   2.702   3.295   1.827 -1.8172  0.3527  1.0379
 3263SOL    HW2 9925   2.590   3.198   1.796 -0.5677 -0.0690 -2.7498
 3264SOL     OW 9926   0.228   3.828   4.019 -0.0804 -0.5701 -0.2599
 3264SOL    HW1 9927   0.259   3.878   3.943  1.3347 -0.2626  0.4799
 3264SOL    HW2 9928   0.287   3.854   4.090 -1.7965 -0.2995  1.1468
 3265SOL     OW 9929   3.492   3.596   1.896  0.2651  0.5826 -0.3553
 3265SOL    HW1 9930   3.492   3.564   1.987 -0.1704 -0.4762 -0.7179
 3265SOL    HW2 9931   3.574   3.645   1.889 -0.1687  1.5655  0.9046
 3266SOL     OW 9932   2.191   1.475   3.090  0.3911  0.3246 -0.1904
 3266SOL    HW1 9933   2.218   1.565   3.073 -1.2658  0.8835 -0.0031
 3266SOL    HW2 9934   2.129   1.482   3.163  0.7687 -1.0472  0.2819
 3267SOL     OW 9935   3.471   2.047   4.988  0.0491 -0.0420  0.3447
 3267SOL    HW1 9936   3.468   2.030   4.894  0.8357 -0.1034  0.3213
 3267SOL    HW2 9937   3.514   2.133   4.996  0.9611 -0.5082  0.6783
 3268SOL     OW 9938   1.319   4.428   3.126 -0.0211  0.3856  0.2178
 3268SOL    HW1 9939   1.243   4.474   3.162  0.2476  2.4933 -1.6691
 3268SOL    HW2 9940   1.326   4.348   3.178 -2.1439  1.2177  1.9289
 3269SOL     OW 9941   1.548   4.086   4.786 -0.2600 -0.2782 -0.1498
 3269SOL    HW1 9942   1.570   4.120   4.872 -0.4038  2.9351 -1.2401
 3269SOL    HW2 9943   1.459   4.053   4.795 -0.1963 -0.1675  0.9653
 3270SOL     OW 9944   2.549   1.088   1.371 -0.2191 -0.3577  0.1731
 3270SOL    HW1 9945   2.484   1.018   1.367 -0.1478 -0.4545  0.6266
 3270SOL    HW2 9946   2.605   1.065   1.444 -1.0819  0.9144  1.3032
 3271SOL     OW 9947   1.318   1.257   2.588  0.2223 -0.3563  0.4661
 3271SOL    HW1 9948   1.404   1.282   2.555  0.7019  0.3205  2.0860
 3271SOL    HW2 9949   1.329   1.259   2.684 -1.5494 -0.3868  0.6943
 3272SOL     OW 9950   2.744   2.700   4.244  0.3474 -0.0140 -0.0410
 3272SOL    HW1 9951   2.792   2.757   4.303  1.1632  0.4156 -1.0944
 3272SOL    HW2 9952   2.741   2.615   4.289  1.8020  0.0380  0.2055
 3273SOL     OW 9953   3.734   3.117   4.631  0.6713  0.2281  0.0560
 3273SOL    HW1 9954   3.720   3.023   4.643 -0.2787  0.3993  0.3825
 3273SOL    HW2 9955   3.713   3.132   4.539 -0.2432  0.2834  0.2586
 3274SOL     OW 9956   2.859   4.729   0.803  0.1855  0.0560 -0.2848
 3274SOL    HW1 9957   2.944   4.705   0.839 -0.2001  0.2677  0.8086
 3274SOL    HW2 9958   2.795   4.680   0.855 -0.3484 -0.7096 -1.6020
 3275SOL     OW 9959   4.257   4.995   4.216  0.5831 -0.2146 -0.0826
 3275SOL    HW1 9960   4.307   4.920   4.184  2.6561  0.6563  0.9887
 3275SOL    HW2 9961   4.300   5.071   4.179 -0.5347  0.5422  0.1275
 3276SOL     OW 9962   2.623   2.586   1.444 -0.4808 -0.4704 -0.0299
 3276SOL    HW1 9963   2.593   2.526   1.375 -0.5668 -1.1268  0.5651
 3276SOL    HW2 9964   2.551   2.648   1.454 -1.0944 -1.2203  0.4336
 3277SOL     OW 9965   4.451   3.913   4.179  0.3395  0.0106 -0.0962
 3277SOL    HW1 9966   4.428   3.862   4.101 -0.1031 -0.1279  0.1146
 3277SOL    HW2 9967   4.533   3.874   4.210 -1.1388 -2.1988  1.3966
 3278SOL     OW 9968   0.646   0.025   1.393 -0.1298 -0.4199 -0.0883
 3278SOL    HW1 9969   0.601  -0.004   1.472 -0.3403  0.9279  0.3061
 3278SOL    HW2 9970   0.730  -0.020   1.396  0.5864  0.9095  1.8376
 3279SOL     OW 9971   1.431   2.656   0.511 -0.0498 -0.2211 -0.1341
 3279SOL    HW1 9972   1.488   2.730   0.532 -0.8944  0.2793  0.4419
 3279SOL    HW2 9973   1.381   2.641   0.592  2.2482 -3.4140  0.8931
 3280SOL     OW 9974   0.768   3.472   0.050  1.2792  0.2774 -0.3205
 3280SOL    HW1 9975   0.681   3.478   0.010  1.1282  1.1242  0.1008
 3280SOL    HW2 9976   0.828   3.457  -0.023  0.8326  0.1931 -0.6739
 3281SOL     OW 9977   3.614   1.981   0.189  0.7149 -1.0458  0.6185
 3281SOL    HW1 9978   3.519   1.969   0.201  0.9484 -2.1250  1.6704
 3281SOL    HW2 9979   3.626   2.076   0.183 -0.3672 -0.8573  1.1641
 3282SOL     OW 9980   0.521   2.308   5.010 -0.8851 -0.1613  0.4327
 3282SOL    HW1 9981   0.610   2.327   4.982 -0.4535 -0.7979  1.3378
 3282SOL    HW2 9982   0.499   2.380   5.069 -1.3312  0.4971 -0.5044
 3283SOL     OW 9983   4.270   0.760   4.368 -0.6575 -0.1477  0.4998
 3283SOL    HW1 9984   4.311   0.716   4.294 -0.3803  0.9008  0.0042
 3283SOL    HW2 9985   4.194   0.804   4.332 -0.3906  0.5662  0.7776
 3284SOL     OW 9986   3.331   4.052   1.729  0.3059  0.1340 -0.2815
 3284SOL    HW1 9987   3.273   4.071   1.655  0.8997  1.3815 -0.4651
 3284SOL    HW2 9988   3.326   4.131   1.784  0.8714 -0.2433  0.3281
 3285SOL     OW 9989   1.119   3.297   4.534 -0.4675  0.2523  0.9020
 3285SOL    HW1 9990   1.211   3.285   4.559 -0.0562 -0.7952 -0.9640
 3285SOL    HW2 9991   1.122   3.350   4.454 -1.5599  0.8581  1.2288
 3286SOL     OW 9992   3.157   4.721   4.446  0.4648 -0.3623 -0.3794
 3286SOL    HW1 9993   3.106   4.647   4.414 -0.0947 -0.3052  0.3542
 3286SOL    HW2 9994   3.150   4.715   4.541  0.3426  0.6755 -0.3160
 3287SOL     OW 9995   3.566   1.308   4.185  0.0925 -0.3389  0.1348
 3287SOL    HW1 9996   3.516   1.252   4.126  1.3266  1.6209 -3.0217
 3287SOL    HW2 9997   3.538   1.397   4.164  1.8260  0.5400  1.2979
 3288SOL     OW 9998   3.093   0.996   3.389 -0.0450  0.4602 -0.5592
 3288SOL    HW1 9999   3.042   0.918   3.407 -0.0036  0.9637  2.1749
 3288SOL    HW210000   3.034   1.053   3.339 -1.7130  0.4560  1.2976
 3289SOL     OW10001   4.736   1.266   2.513  0.0491  0.0948  0.4646
 3289SOL    HW110002   4.718   1.212   2.590 -0.8526  1.2360  1.0992
 3289SOL    HW210003   4.651   1.305   2.491  0.2322 -0.4270 -1.3010
 3290SOL     OW10004   4.986   0.204   1.435  0.4228 -0.1133 -0.5712
 3290SOL    HW110005   4.892   0.210   1.452  0.8019  0.5149  1.6083
 3290SOL    HW210006   5.017   0.294   1.434  0.9909 -0.2920 -1.6220
 3291SOL     OW10007   2.762   2.007   3.801 -0.1886  0.8517  0.2617
 3291SOL    HW110008   2.701   1.935   3.786 -0.6625  1.0128  1.3269
 3291SOL    HW210009   2.729   2.050   3.880  0.1534  2.1785 -0.2989
 3292SOL     OW10010   0.288   2.918   1.451  0.2380 -0.0910 -0.3826
 3292SOL    HW110011   0.326   2.861   1.518 -0.0913 -0.8939 -0.8618
 3292SOL    HW210012   0.239   2.859   1.394  0.0517  0.6508 -1.0153
 3293SOL     OW10013   2.872   4.646   3.762  0.0949 -0.1472  0.2709
 3293SOL    HW110014   2.942   4.696   3.803 -0.6348  0.7112  0.5191
 3293SOL    HW210015   2.806   4.637   3.832 -0.6443  0.2893 -0.3562
 3294SOL     OW10016   4.167   4.509   1.858  0.0374  0.1155 -0.0383
 3294SOL    HW110017   4.242   4.560   1.829 -0.6890  0.9771 -0.4799
 3294SOL    HW210018   4.204   4.437   1.908  1.0822  1.4056  1.1262
 3295SOL     OW10019   3.397   0.380   0.951  0.3493 -0.7469 -0.1119
 3295SOL    HW110020   3.322   0.435   0.928  1.0464  0.1898 -0.1912
 3295SOL    HW210021   3.413   0.328   0.872 -0.4825 -1.2671  0.0545
 3296SOL     OW10022   1.861   2.423   1.525 -0.8355 -0.1802  0.1662
 3296SOL    HW110023   1.876   2.370   1.603  0.7511 -0.5884 -0.3717
 3296SOL    HW210024   1.817   2.364   1.464  3.8230 -2.2324 -1.6952
 3297SOL     OW10025   1.086   1.734   3.189  0.6160  0.0751 -0.2622
 3297SOL    HW110026   1.022   1.762   3.124 -0.9130 -2.2174  0.1254
 3297SOL    HW210027   1.162   1.706   3.138 -0.3232 -1.1009 -1.0727
 3298SOL     OW10028   0.794   4.003   3.906  0.4925 -0.7023  0.3938
 3298SOL    HW110029   0.733   3.990   3.832  1.3018  1.8352 -0.8469
 3298SOL    HW210030   0.879   3.975   3.872  0.8920  0.5972  0.2487
 3299SOL     OW10031   4.242   2.214   3.429 -0.1291 -0.7755 -0.0582
 3299SOL    HW110032   4.258   2.157   3.354 -1.0263 -0.6046 -0.3915
 3299SOL    HW210033   4.166   2.266   3.404  0.1315 -0.0585  0.6045
 3300SOL     OW10034   1.861   4.684   2.925 -0.3809  0.2351 -0.3340
 3300SOL    HW110035   1.934   4.737   2.955 -0.4381  0.0596  0.1327
 3300SOL    HW210036   1.902   4.612   2.876 -0.1833 -0.2985  0.5928
 3301SOL     OW10037   2.282   3.396   0.416 -0.0186 -0.2006 -0.5266
 3301SOL    HW110038   2.358   3.339   0.418  0.5420  0.5455 -0.0965
 3301SOL    HW210039   2.216   3.351   0.468  0.5526 -0.2813  0.1368
 3302SOL     OW10040   4.020   0.668   3.249  0.4461  0.3008 -0.3415
 3302SOL    HW110041   4.113   0.671   3.271  0.5197 -0.9780 -0.4045
 3302SOL    HW210042   4.014   0.713   3.165  1.3476 -1.3499 -1.3334
 3303SOL     OW10043   2.239   0.855   3.870 -0.3175  0.5312 -0.8772
 3303SOL    HW110044   2.180   0.927   3.896  0.4357  0.8557 -0.0224
 3303SOL    HW210045   2.297   0.895   3.806  1.4276  1.3160  1.0703
 3304SOL     OW10046   0.950   2.468   2.498  0.2177 -0.7130  0.2721
 3304SOL    HW110047   0.981   2.390   2.453 -2.2992 -1.6057 -0.1039
 3304SOL    HW210048   0.920   2.436   2.583 -2.7632 -0.6706 -0.6459
 3305SOL     OW10049   0.123   3.418   1.604 -0.6021  0.0240 -0.1297
 3305SOL    HW110050   0.107   3.507   1.571 -1.9490  0.2961  1.1667
 3305SOL    HW210051   0.036   3.380   1.615 -0.0382 -1.5379 -0.8056
 3306SOL     OW10052   4.405   4.038   1.463  0.1349 -0.3558  0.0245
 3306SOL    HW110053   4.455   4.118   1.453  1.7944 -1.3548  0.0679
 3306SOL    HW210054   4.315   4.068   1.480  0.9299  1.4915  1.2337
 3307SOL     OW10055   1.652   3.604   1.852 -0.4697  0.0788 -0.1156
 3307SOL    HW110056   1.571   3.628   1.897 -0.0347  2.1633 -0.3163
 3307SOL    HW210057   1.671   3.679   1.795  2.7099  0.7183  1.5174
 3308SOL     OW10058   4.328   0.381   0.337 -0.2477  0.0600 -0.4026
 3308SOL    HW110059   4.324   0.356   0.430 -0.3405 -1.6131 -0.8116
 3308SOL    HW210060   4.409   0.340   0.306 -0.0618  0.8733 -0.9971
 3309SOL     OW10061   4.796   3.277   1.122 -0.1584 -0.6588 -0.4710
 3309SOL    HW110062   4.793   3.373   1.129 -0.4285 -0.5992 -1.3605
 3309SOL    HW210063   4.748   3.257   1.042  1.4212 -1.4318 -1.2615
 3310SOL     OW10064   3.956   3.400   0.487  0.5780 -0.1892  0.0995
 3310SOL    HW110065   3.861   3.408   0.479  0.6273  2.4229  1.1687
 3310SOL    HW210066   3.991   3.470   0.432  1.7209  0.9050  2.0714
 3311SOL     OW10067   5.007   0.257   3.142  0.0320 -0.3732 -0.1623
 3311SOL    HW110068   5.064   0.187   3.174 -0.6407 -0.2890  1.2684
 3311SOL    HW210069   4.924   0.242   3.186 -1.0906 -0.5034 -2.2248
 3312SOL     OW10070   3.332   4.019   2.851  0.4855 -0.0268 -0.4362
 3312SOL    HW110071   3.416   3.982   2.827  0.4471 -0.7007  0.4240
 3312SOL    HW210072   3.342   4.113   2.838  1.0302 -0.1930 -1.3058
 3313SOL     OW10073   5.016   2.206   2.355  0.0335  0.7718  0.1810
 3313SOL    HW110074   5.025   2.241   2.266  1.8786  0.2352  0.1233
 3313SOL    HW210075   4.926   2.227   2.380 -0.4760  1.0516 -1.7589
 3314SOL     OW10076   3.708   2.785   1.759 -0.2013  0.4614 -0.2127
 3314SOL    HW110077   3.692   2.783   1.665  0.2637 -1.6483 -0.2850
 3314SOL    HW210078   3.640   2.730   1.797  2.3159 -2.7358  0.1460
 3315SOL     OW10079   4.619   4.510   2.090  0.3935 -0.3383  0.0135
 3315SOL    HW110080   4.651   4.535   2.177 -0.5356 -0.1383  0.3154
 3315SOL    HW210081   4.597   4.593   2.048 -3.4601 -0.4699  1.3134
 3316SOL     OW10082   1.022   2.476   4.959 -0.3140  0.6743  0.5015
 3316SOL    HW110083   1.099   2.439   5.001  0.4194 -0.2568 -1.5257
 3316SOL    HW210084   1.044   2.569   4.947 -0.0707  0.6973  1.0860
 3317SOL     OW10085   1.290   0.673   4.263  0.6824  0.4140  0.2627
 3317SOL    HW110086   1.219   0.655   4.325  0.4462  0.0516 -0.0999
 3317SOL    HW210087   1.358   0.715   4.315  0.1797  0.8082  0.6085
 3318SOL     OW10088   1.245   4.918   2.088 -0.4832  0.1394 -0.8305
 3318SOL    HW110089   1.199   4.984   2.140  0.3904  0.8872 -0.9851
 3318SOL    HW210090   1.214   4.932   1.999 -0.2223  0.3948 -0.8782
 3319SOL     OW10091   4.947   4.043   2.122 -0.0370 -0.0909 -0.0313
 3319SOL    HW110092   4.855   4.041   2.095 -0.3555 -0.6738  1.0620
 3319SOL    HW210093   4.950   4.109   2.191 -0.0191 -1.3755  1.2365
 3320SOL     OW10094   1.438   3.411   1.192 -0.2302  0.2919 -0.8881
 3320SOL    HW110095   1.358   3.364   1.167  0.5451 -0.3137 -2.4008
 3320SOL    HW210096   1.508   3.362   1.149  0.9780  0.7204  0.5325
 3321SOL     OW10097   0.171   1.534   1.897  0.0455  0.0140 -0.7763
 3321SOL    HW110098   0.080   1.528   1.870 -0.3232 -2.3761  0.7021
 3321SOL    HW210099   0.221   1.526   1.816 -0.9802  1.8798 -1.6725
 3322SOL     OW10100   1.743   4.120   3.050 -0.0904 -0.4425 -0.0214
 3322SOL    HW110101   1.794   4.196   3.079 -0.6823 -0.1433  0.2683
 3322SOL    HW210102   1.704   4.086   3.131 -0.4622 -0.5740 -0.2572
 3323SOL     OW10103   1.705   4.641   1.412 -0.6427  0.0057 -0.2841
 3323SOL    HW110104   1.710   4.731   1.445 -1.5950 -0.1481  0.3334
 3323SOL    HW210105   1.612   4.622   1.410 -0.4250 -1.1515  0.1022
 3324SOL     OW10106   3.711   3.280   0.900  0.0147  0.5041  0.1163
 3324SOL    HW110107   3.727   3.215   0.968 -0.8629 -0.0564 -0.1957
 3324SOL    HW210108   3.682   3.358   0.948 -0.1894  0.2468  0.4164
 3325SOL     OW10109   2.936   4.647   2.986  0.0597  0.2686  0.3522
 3325SOL    HW110110   2.881   4.641   2.908  0.2916  0.0752  0.2046
 3325SOL    HW210111   2.985   4.565   2.988 -0.3140  0.0498  0.9780
 3326SOL     OW10112   0.645   4.038   1.268  0.2104 -0.1641 -0.0666
 3326SOL    HW110113   0.708   4.107   1.291 -0.3973  0.0411  1.1023
 3326SOL    HW210114   0.614   4.062   1.181 -0.4900  1.4459  0.5817
 3327SOL     OW10115   4.490   0.598   0.557 -0.0562 -0.1261  0.2635
 3327SOL    HW110116   4.471   0.613   0.464  0.6619  1.2118  0.2993
 3327SOL    HW210117   4.585   0.604   0.563 -0.1689  1.2327  1.2831
 3328SOL     OW10118   2.983   2.917   2.588 -0.2832  0.0583 -0.6090
 3328SOL    HW110119   3.003   2.863   2.664 -1.0759 -0.3211 -0.6642
 3328SOL    HW210120   3.068   2.930   2.545  0.0900 -0.1614  0.0429
 3329SOL     OW10121   3.128   3.245   2.154  0.5696 -0.1785  0.0191
 3329SOL    HW110122   3.061   3.222   2.218  1.9101  0.3069  1.6841
 3329SOL    HW210123   3.189   3.301   2.203  1.7140  0.1080 -1.6648
 3330SOL     OW10124   3.331   0.663   2.973 -0.4435  0.1209 -0.2237
 3330SOL    HW110125   3.321   0.571   2.947 -0.6837  0.1558 -0.2607
 3330SOL    HW210126   3.414   0.690   2.935  0.0141 -0.3096  0.4411
 3331SOL     OW10127   4.760   0.966   4.510  0.3653 -0.2472 -0.1856
 3331SOL    HW110128   4.722   1.041   4.464  2.2100 -0.3378 -1.9868
 3331SOL    HW210129   4.725   0.889   4.465  0.0736 -0.4140  0.3235
 3332SOL     OW10130   4.399   4.800   0.834 -0.0510 -0.0196  0.3955
 3332SOL    HW110131   4.335   4.832   0.899 -0.7588 -3.3008  1.5338
 3332SOL    HW210132   4.484   4.810   0.878 -0.2896 -0.0307  0.8742
 3333SOL     OW10133   3.920   0.045   3.253 -0.8267  0.3862  0.0154
 3333SOL    HW110134   3.843  -0.009   3.270  0.2467 -0.6153  2.0965
 3333SOL    HW210135   3.993  -0.016   3.257  0.1530  1.4228 -1.3150
 3334SOL     OW10136   2.536   3.255   0.419  0.2691 -0.1888  0.3683
 3334SOL    HW110137   2.621   3.282   0.453  0.5488  0.9973 -1.1740
 3334SOL    HW210138   2.533   3.161   0.435  2.0555 -0.3364  0.0926
 3335SOL     OW10139   1.146   1.908   3.651  1.0685 -0.0288 -0.0377
 3335SOL    HW110140   1.096   1.834   3.616 -1.6045  0.6113  2.1094
 3335SOL    HW210141   1.086   1.982   3.646  1.6248  0.7284  2.9648
 3336SOL     OW10142   4.640   0.222   3.735  0.2131 -0.0870  0.4411
 3336SOL    HW110143   4.708   0.234   3.669  1.0555 -0.8150  1.1440
 3336SOL    HW210144   4.688   0.198   3.814 -0.7187  1.3476  1.4970
 3337SOL     OW10145   0.405   3.827   0.761  0.1448  0.2234  0.5984
 3337SOL    HW110146   0.337   3.894   0.754  0.2081  0.2976  0.6832
 3337SOL    HW210147   0.479   3.864   0.713  0.6300  0.7967  1.7365
 3338SOL     OW10148   1.109   4.622   1.820 -0.4265 -0.2001  1.0008
 3338SOL    HW110149   1.091   4.550   1.880  0.8932 -0.1643  1.4733
 3338SOL    HW210150   1.200   4.647   1.838 -0.2506  0.3418 -0.4619
 3339SOL     OW10151   4.419   1.730   2.215 -0.5845 -0.2989  0.5406
 3339SOL    HW110152   4.501   1.770   2.244 -0.9249  0.6150  0.2903
 3339SOL    HW210153   4.438   1.695   2.128 -0.2088 -0.9238  0.8710
 3340SOL     OW10154   4.088   4.728   4.966 -0.9828 -0.4394  0.2481
 3340SOL    HW110155   4.054   4.716   4.877 -1.0902 -0.1844  0.2528
 3340SOL    HW210156   4.162   4.787   4.956 -0.3054 -1.2860  0.1934
 3341SOL     OW10157   1.502   1.254   2.170 -0.2862 -0.1259  0.2896
 3341SOL    HW110158   1.420   1.282   2.211  0.4850  1.4974  0.8282
 3341SOL    HW210159   1.485   1.256   2.076 -0.0917  3.1150  0.2204
 3342SOL     OW10160   0.683   3.719   3.569  0.2546  0.3346 -0.2706
 3342SOL    HW110161   0.623   3.742   3.498  0.5728 -1.2546 -1.0982
 3342SOL    HW210162   0.677   3.624   3.576  3.4988 -0.0897 -1.2347
 3343SOL     OW10163   1.375   4.727   2.261 -0.0211  0.0423  0.0101
 3343SOL    HW110164   1.388   4.787   2.335 -0.8494 -0.2202  0.3770
 3343SOL    HW210165   1.332   4.781   2.195  0.3925  0.1816 -0.1499
 3344SOL     OW10166   0.948   3.665   3.728 -0.8850  0.2898  0.0444
 3344SOL    HW110167   0.872   3.687   3.673 -1.2036 -3.5560 -1.3713
 3344SOL    HW210168   0.911   3.614   3.800  0.2056 -0.0724  0.3543
 3345SOL     OW10169   0.234   2.734   4.618  0.8885 -0.0144  0.0643
 3345SOL    HW110170   0.153   2.687   4.638  0.1099  1.6681  1.1045
 3345SOL    HW210171   0.267   2.762   4.704  1.2169  1.4532 -0.5185
 3346SOL     OW10172   1.311   4.848   1.265 -0.2507  0.8143  0.6620
 3346SOL    HW110173   1.302   4.753   1.262 -0.7595  0.8724 -0.5936
 3346SOL    HW210174   1.387   4.866   1.210 -0.8653  1.1882 -0.0918
 3347SOL     OW10175   4.850   0.277   3.582 -0.4736 -0.2746 -0.1120
 3347SOL    HW110176   4.925   0.234   3.622 -0.5084  0.0630  0.3236
 3347SOL    HW210177   4.887   0.352   3.536 -0.6842  0.7544  1.3346
 3348SOL     OW10178   3.638   4.449   1.031 -0.6062 -0.0916  0.2538
 3348SOL    HW110179   3.661   4.534   0.994  0.9380 -0.7026 -0.2386
 3348SOL    HW210180   3.716   4.421   1.079 -0.6207 -1.7903 -0.6402
 3349SOL     OW10181   5.037   1.085   4.194  0.7271  0.5556  0.0486
 3349SOL    HW110182   4.946   1.090   4.166  0.7436 -1.6312 -0.6269
 3349SOL    HW210183   5.034   1.089   4.289 -0.2729 -1.0491  0.1288
 3350SOL     OW10184   0.989   0.200   4.577 -0.3611 -0.7523 -0.6426
 3350SOL    HW110185   0.920   0.135   4.564  0.0703 -1.4242  0.2834
 3350SOL    HW210186   1.062   0.150   4.614 -0.9463  0.6546  2.8068
 3351SOL     OW10187   2.799   0.435   1.219 -0.1258  0.3030  0.0311
 3351SOL    HW110188   2.885   0.400   1.196  0.0047  0.3318  0.4662
 3351SOL    HW210189   2.798   0.435   1.315 -0.9954 -0.6424  0.0335
 3352SOL     OW10190   0.600   2.587   1.570  0.8071 -0.1276 -0.4792
 3352SOL    HW110191   0.644   2.615   1.650  0.2107 -0.8074  0.0919
 3352SOL    HW210192   0.588   2.668   1.520  1.4497  0.2561 -0.0206
 3353SOL     OW10193   4.175   0.833   0.578  0.1424 -0.0137  0.1799
 3353SOL    HW110194   4.104   0.893   0.558  0.0720  0.3291  1.3952
 3353SOL    HW210195   4.223   0.824   0.496 -1.6932 -0.8144 -0.8792
 3354SOL     OW10196   4.837   0.365   0.630  0.4682 -0.4792  0.0636
 3354SOL    HW110197   4.879   0.451   0.633 -0.6155  0.0770  0.0104
 3354SOL    HW210198   4.861   0.329   0.544 -1.2370  0.9461 -1.0809
 3355SOL     OW10199   1.144   3.185   0.856  0.5637  0.7761 -0.4751
 3355SOL    HW110200   1.178   3.248   0.792 -0.7329  1.2328 -0.7347
 3355SOL    HW210201   1.049   3.186   0.844  0.3407  0.3595  0.9914
 3356SOL     OW10202   3.324   3.027   3.367  0.3915  0.1277 -0.3007
 3356SOL    HW110203   3.285   3.112   3.389 -1.3232 -0.3486 -1.3078
 3356SOL    HW210204   3.281   3.001   3.285  1.3036 -1.4497 -0.3288
 3357SOL     OW10205   2.787   4.898   1.838 -0.2621  0.1416  0.4972
 3357SOL    HW110206   2.727   4.940   1.775  0.2386  0.5151  0.2676
 3357SOL    HW210207   2.841   4.969   1.872  1.8434 -0.5169 -1.2439
 3358SOL     OW10208   1.075   4.587   3.830 -0.0210 -0.2101  0.1932
 3358SOL    HW110209   1.004   4.523   3.837 -0.4791  0.2559 -0.1226
 3358SOL    HW210210   1.038   4.658   3.778  0.5788  0.1781  0.2903
 3359SOL     OW10211   4.636   4.789   1.541 -0.4066 -0.6152  0.1220
 3359SOL    HW110212   4.635   4.768   1.447 -0.5306 -0.5053  0.0993
 3359SOL    HW210213   4.631   4.704   1.584  1.5824 -0.8295  0.0378
 3360SOL     OW10214   3.641   3.115   1.614 -0.3864  0.4897  0.2915
 3360SOL    HW110215   3.615   3.094   1.704 -1.1759  0.8319  0.1534
 3360SOL    HW210216   3.632   3.032   1.567  0.2293  0.2620  0.5681
 3361SOL     OW10217   1.519   4.339   3.844 -0.0671 -0.1158  0.3473
 3361SOL    HW110218   1.494   4.248   3.860 -0.0443  0.0698  1.5654
 3361SOL    HW210219   1.615   4.339   3.846 -0.0697 -0.0429  0.5275
 3362SOL     OW10220   1.507   0.897   2.769  0.0149  0.1535  0.0232
 3362SOL    HW110221   1.425   0.901   2.721 -0.4187  4.6044  0.7816
 3362SOL    HW210222   1.574   0.885   2.701 -0.9533  0.7338 -1.0692
 3363SOL     OW10223   2.484   4.048   0.070  0.2739  0.7163  0.0603
 3363SOL    HW110224   2.526   4.069  -0.013  0.1348 -0.7805 -0.4338
 3363SOL    HW210225   2.392   4.033   0.047 -0.0639  1.7039  0.7362
 3364SOL     OW10226   1.584   1.497   3.733  0.1786 -0.0918  0.0906
 3364SOL    HW110227   1.539   1.464   3.811  0.1464 -1.2799 -0.4025
 3364SOL    HW210228   1.666   1.533   3.766 -0.2410  0.2616  0.7699
 3365SOL     OW10229   3.595   3.549   0.334  0.5840 -0.1985 -0.1189
 3365SOL    HW110230   3.529   3.507   0.280 -1.1962  1.2078  0.8162
 3365SOL    HW210231   3.620   3.482   0.398  0.4775 -0.9199 -0.8180
 3366SOL     OW10232   2.685   4.485   3.573  0.0623  0.0156  0.1335
 3366SOL    HW110233   2.670   4.394   3.599 -1.0753  0.3486  0.7055
 3366SOL    HW210234   2.765   4.511   3.619 -0.9758  0.0640  2.0052
 3367SOL     OW10235   3.617   4.407   0.753 -0.6195 -0.1019 -0.2963
 3367SOL    HW110236   3.534   4.454   0.759  1.1387  3.1431  1.0852
 3367SOL    HW210237   3.645   4.395   0.844  0.2477 -1.5998 -0.7161
 3368SOL     OW10238   1.964   1.392   4.834  0.0930 -0.1015 -0.4293
 3368SOL    HW110239   1.959   1.414   4.741  2.2071 -1.0728 -0.8367
 3368SOL    HW210240   2.037   1.445   4.867  1.0584 -1.6502  0.0355
 3369SOL     OW10241   4.651   3.642   4.755  0.1052 -0.1017  0.4361
 3369SOL    HW110242   4.584   3.575   4.759  0.1889 -0.4579 -2.3937
 3369SOL    HW210243   4.606   3.719   4.719  0.9823 -0.0647 -0.6207
 3370SOL     OW10244   0.945   1.539   4.079 -0.0751  0.2677 -0.4704
 3370SOL    HW110245   0.879   1.560   4.012  0.1190 -1.5176 -1.2686
 3370SOL    HW210246   0.907   1.573   4.160 -0.6197  1.8997 -1.3483
 3371SOL     OW10247   0.911   4.752   3.695  0.1545 -0.0819 -0.0797
 3371SOL    HW110248   0.930   4.833   3.742 -0.6360 -0.0273  0.1513
 3371SOL    HW210249   0.817   4.740   3.704  0.0369 -0.2415 -1.3830
 3372SOL     OW10250   2.516   1.103   3.427  0.6681  0.3841 -0.0657
 3372SOL    HW110251   2.506   1.094   3.522 -1.6280 -0.4989 -0.3487
 3372SOL    HW210252   2.471   1.027   3.390 -1.7305  2.5401 -1.9426
 3373SOL     OW10253   4.878   0.870   3.666 -0.2730 -0.1210  0.0841
 3373SOL    HW110254   4.930   0.950   3.667 -2.1845  1.2777  3.1299
 3373SOL    HW210255   4.918   0.814   3.733 -1.6724  0.3463  1.3724
 3374SOL     OW10256   1.332   4.885   3.016  0.2480  0.1987 -1.1293
 3374SOL    HW110257   1.348   4.790   3.011  0.1965  0.2015 -1.3499
 3374SOL    HW210258   1.248   4.892   3.062  2.1252  0.2688  2.7084
 3375SOL     OW10259   4.998   3.385   3.853  0.7522  0.4421  0.0364
 3375SOL    HW110260   4.986   3.479   3.867 -0.0498  0.2312  0.8213
 3375SOL    HW210261   5.000   3.347   3.941 -1.9279 -0.6294 -0.2698
 3376SOL     OW10262   2.756   3.693   4.056  0.1756 -0.1826 -0.6167
 3376SOL    HW110263   2.699   3.717   3.983  0.9201  1.7032 -0.6321
 3376SOL    HW210264   2.716   3.736   4.132  0.7661 -0.0891 -0.3553
 3377SOL     OW10265   0.598   3.653   2.467  0.0889  1.3070 -0.0714
 3377SOL    HW110266   0.612   3.640   2.373  1.2282 -1.2683  0.3652
 3377SOL    HW210267   0.504   3.670   2.476 -0.1827  0.7153 -1.5793
 3378SOL     OW10268   1.910   0.245   4.819 -0.1951 -0.1570 -0.8490
 3378SOL    HW110269   1.848   0.309   4.853 -0.0595 -0.7382  0.6074
 3378SOL    HW210270   1.873   0.160   4.845  1.6153 -0.4836  0.9001
 3379SOL     OW10271   2.568   3.277   1.422  0.2306 -0.5626  0.0310
 3379SOL    HW110272   2.623   3.200   1.434  1.7118  0.5618  0.8718
 3379SOL    HW210273   2.487   3.257   1.469  0.3021 -1.8655 -0.3705
 3380SOL     OW10274   1.203   3.358   0.662 -0.6675  0.4084 -0.1032
 3380SOL    HW110275   1.191   3.329   0.571  0.5598  1.2484 -0.5545
 3380SOL    HW210276   1.191   3.453   0.659  1.3347  0.7223  0.2101
 3381SOL     OW10277   4.517   5.027   1.194 -0.0051  0.0340 -0.3880
 3381SOL    HW110278   4.487   5.108   1.153 -2.7179 -0.3491  0.6234
 3381SOL    HW210279   4.576   4.988   1.130  0.4430  2.2112 -1.3941
 3382SOL     OW10280   1.633   0.114   4.563  0.0735 -0.3510 -0.1700
 3382SOL    HW110281   1.615   0.193   4.615 -1.9619 -2.4906  2.7863
 3382SOL    HW210282   1.727   0.099   4.574  0.3151  1.1375  0.0065
 3383SOL     OW10283   3.574   4.958   0.491  0.2511 -0.4465  0.2597
 3383SOL    HW110284   3.496   4.995   0.449  0.0614  0.1492  1.1273
 3383SOL    HW210285   3.554   4.865   0.502 -0.3080 -0.3071  0.4186
 3384SOL     OW10286   1.605   1.823   0.916 -0.1415 -0.0005  0.1618
 3384SOL    HW110287   1.545   1.864   0.977  1.8149 -1.1580  3.0657
 3384SOL    HW210288   1.690   1.864   0.932  0.2094  0.8619 -3.0763
 3385SOL     OW10289   3.083   3.435   1.336  0.3842 -0.2051 -0.5526
 3385SOL    HW110290   3.101   3.493   1.411  1.5564 -0.0111 -0.9585
 3385SOL    HW210291   3.086   3.493   1.260  0.2890 -0.5886 -0.8521
 3386SOL     OW10292   1.920   1.608   4.211  0.4664  0.1781 -0.1972
 3386SOL    HW110293   1.996   1.569   4.255  0.8406  2.5314  1.4396
 3386SOL    HW210294   1.932   1.702   4.222 -2.2703  0.6619 -0.6239
 3387SOL     OW10295   2.216   0.334   1.534  0.3759 -0.4873 -0.4514
 3387SOL    HW110296   2.176   0.321   1.620  0.0826 -1.7102 -0.7487
 3387SOL    HW210297   2.310   0.331   1.551  0.3233 -1.2903 -0.2260
 3388SOL     OW10298   2.796   4.059   0.972 -0.3789 -0.0513  0.1470
 3388SOL    HW110299   2.834   4.105   1.047  0.6460  0.0137 -0.3855
 3388SOL    HW210300   2.702   4.061   0.987 -0.2791  1.1793  0.7401
 3389SOL     OW10301   1.761   1.465   4.019  0.2560 -0.1765  0.6932
 3389SOL    HW110302   1.819   1.503   4.085  0.7473 -1.1112  0.8220
 3389SOL    HW210303   1.686   1.524   4.016  0.7184  0.4620  1.3110
 3390SOL     OW10304   4.270   0.573   3.535  0.1520  0.4246  0.8202
 3390SOL    HW110305   4.208   0.547   3.602 -0.5106 -1.7409 -0.5268
 3390SOL    HW210306   4.326   0.638   3.577 -0.9345 -0.0216  3.0826
 3391SOL     OW10307   4.474   3.809   0.612 -0.8987 -0.1086 -0.1513
 3391SOL    HW110308   4.485   3.715   0.627  0.7866 -0.7761 -4.2892
 3391SOL    HW210309   4.380   3.821   0.599 -0.9703 -1.5149 -1.0365
 3392SOL     OW10310   4.813   1.516   4.070 -0.0824 -0.2305  0.3791
 3392SOL    HW110311   4.787   1.607   4.077 -1.3411 -0.6997  2.8065
 3392SOL    HW210312   4.893   1.510   4.123 -0.2155 -0.5997  0.5411
 3393SOL     OW10313   2.683   3.461   2.193  0.2202 -0.4104  0.3671
 3393SOL    HW110314   2.765   3.504   2.217 -0.8504  0.9565  1.8070
 3393SOL    HW210315   2.688   3.374   2.233  1.8345 -1.2139 -1.4136
 3394SOL     OW10316   1.699   4.506   1.087  0.1021 -0.1907 -0.2760
 3394SOL    HW110317   1.744   4.431   1.048  0.5258 -0.3780  0.5593
 3394SOL    HW210318   1.686   4.482   1.179 -0.9247  0.2252 -0.3012
 3395SOL     OW10319   3.606   4.026   4.350  0.1035 -0.6103 -0.4805
 3395SOL    HW110320   3.550   3.989   4.419 -1.4040 -1.1448 -1.9334
 3395SOL    HW210321   3.674   4.073   4.398 -0.9207 -0.9015  1.3738
 3396SOL     OW10322   3.459   1.103   4.053 -0.2334  0.4187 -0.1543
 3396SOL    HW110323   3.419   1.153   3.982 -1.0521  0.0297  0.0141
 3396SOL    HW210324   3.421   1.016   4.046 -3.8065  1.3709  3.2624
 3397SOL     OW10325   1.641   0.250   0.660  0.1128 -0.0326  0.4067
 3397SOL    HW110326   1.562   0.199   0.675 -0.0600 -0.0178 -0.3937
 3397SOL    HW210327   1.624   0.334   0.704  0.2674 -0.5290  1.4416
 3398SOL     OW10328   3.631   3.284   2.023  0.8794 -0.0987 -0.3945
 3398SOL    HW110329   3.618   3.237   2.106  1.5063  0.1310 -0.1648
 3398SOL    HW210330   3.552   3.264   1.973 -0.2480  1.0141  0.8625
 3399SOL     OW10331   1.575   2.639   2.787 -0.4574  0.6807  0.7309
 3399SOL    HW110332   1.629   2.654   2.864 -1.5822  0.6107  1.5560
 3399SOL    HW210333   1.607   2.702   2.722  2.9873 -1.6196 -0.1267
 3400SOL     OW10334   1.386   1.042   4.244  0.4218 -0.0227 -0.1736
 3400SOL    HW110335   1.415   1.058   4.154  0.4223 -1.3966 -0.4336
 3400SOL    HW210336   1.365   1.129   4.278  0.7622  0.5513 -1.3817
 3401SOL     OW10337   3.526   2.932   1.441 -0.1043 -0.4828  0.0481
 3401SOL    HW110338   3.580   2.855   1.422  1.8366  0.7542  0.2319
 3401SOL    HW210339   3.513   2.973   1.355 -1.1301 -0.9898 -0.0486
 3402SOL     OW10340   4.910   0.629   0.090 -0.0180  0.8115 -0.5512
 3402SOL    HW110341   4.878   0.668   0.008  0.6748  1.9133 -0.3177
 3402SOL    HW210342   4.866   0.544   0.095 -1.9537  1.7369 -0.8622
 3403SOL     OW10343   0.629   3.343   1.446 -0.1336 -0.5134  0.1892
 3403SOL    HW110344   0.685   3.303   1.379 -0.3298 -1.4376  0.5655
 3403SOL    HW210345   0.690   3.390   1.503  0.2207 -1.1419  0.3397
 3404SOL     OW10346   4.915   3.204   2.607  0.0300  0.0997 -0.3860
 3404SOL    HW110347   4.998   3.242   2.634  0.6851  0.1361 -2.3319
 3404SOL    HW210348   4.891   3.147   2.681  0.8911  1.3693  0.9437
 3405SOL     OW10349   3.218   2.381   1.561  0.0191  0.2815  0.4694
 3405SOL    HW110350   3.289   2.445   1.566 -0.7527  1.2109 -0.0398
 3405SOL    HW210351   3.173   2.401   1.479 -1.5869  0.5738  1.3627
 3406SOL     OW10352   4.029   2.256   1.959 -0.1909 -0.2584  0.2970
 3406SOL    HW110353   3.976   2.184   1.925 -1.2352  0.4693  0.3460
 3406SOL    HW210354   4.106   2.257   1.903 -0.4212 -1.0646 -0.0517
 3407SOL     OW10355   1.848   4.772   3.779 -0.1277 -0.2340 -0.0524
 3407SOL    HW110356   1.841   4.710   3.707 -0.7412  0.2611 -0.4406
 3407SOL    HW210357   1.758   4.802   3.794  0.1214  0.3826  0.2772
 3408SOL     OW10358   2.230   1.758   4.425  0.2646  0.1268  0.6526
 3408SOL    HW110359   2.224   1.853   4.415 -1.5180  0.2703  2.3437
 3408SOL    HW210360   2.264   1.727   4.341 -0.0730  2.1672 -0.3029
 3409SOL     OW10361   2.716   0.149   3.782  0.0809 -0.2081  0.0286
 3409SOL    HW110362   2.669   0.225   3.747 -1.4472 -2.1150 -2.4216
 3409SOL    HW210363   2.770   0.118   3.709 -0.0689 -2.0083  0.6121
 3410SOL     OW10364   2.319   4.616   0.310 -0.2127 -0.0785  0.0460
 3410SOL    HW110365   2.403   4.637   0.350  0.0491  0.7858 -0.9422
 3410SOL    HW210366   2.340   4.549   0.244 -0.1335  0.8415 -0.8797
 3411SOL     OW10367   2.560   0.900   2.064  0.3472  0.6402 -0.5970
 3411SOL    HW110368   2.579   0.992   2.045  0.7962  1.1386  1.8552
 3411SOL    HW210369   2.481   0.902   2.117  1.6177 -0.0767  1.4823
 3412SOL     OW10370   3.400   3.584   2.869 -0.4835 -0.0982  0.3224
 3412SOL    HW110371   3.454   3.618   2.798 -0.1854  0.9794  1.0343
 3412SOL    HW210372   3.457   3.585   2.945 -1.2159  0.1581  0.8809
 3413SOL     OW10373   1.181   0.622   0.942  0.9418  0.5153  0.1655
 3413SOL    HW110374   1.136   0.679   0.879  1.7968 -0.1070 -1.0572
 3413SOL    HW210375   1.267   0.663   0.954  0.9279  0.4123  0.6272
 3414SOL     OW10376   4.311   0.437   4.377  0.7469  0.1602  0.5548
 3414SOL    HW110377   4.343   0.513   4.329 -0.4305  0.2072 -0.2290
 3414SOL    HW210378   4.261   0.388   4.311  2.5839 -2.0178  0.6785
 3415SOL     OW10379   2.230   4.008   4.492  0.3536  1.1747 -0.3714
 3415SOL    HW110380   2.283   3.929   4.504 -0.3949  0.6921 -0.1476
 3415SOL    HW210381   2.244   4.033   4.400  1.1508  1.2039 -0.2522
 3416SOL     OW10382   4.658   4.550   2.538  0.0462 -0.3941  0.4290
 3416SOL    HW110383   4.566   4.524   2.546 -0.1668 -0.7644 -2.1919
 3416SOL    HW210384   4.707   4.468   2.540  0.0164 -0.4702 -1.0034
 3417SOL     OW10385   1.999   2.915   3.683 -0.2848  0.2054 -0.1363
 3417SOL    HW110386   1.942   2.858   3.735 -0.2115  0.4329  0.2025
 3417SOL    HW210387   1.958   2.920   3.597  0.2455 -1.1816 -0.4934
 3418SOL     OW10388   1.574   0.558   3.659 -0.0900 -0.1097 -0.6642
 3418SOL    HW110389   1.558   0.592   3.747 -0.2924 -1.2685 -0.2250
 3418SOL    HW210390   1.505   0.493   3.646  0.8382 -1.0593 -1.0399
 3419SOL     OW10391   4.094   3.750   2.672 -0.3722 -0.2805 -0.0907
 3419SOL    HW110392   4.157   3.799   2.726 -1.4712 -0.1405  1.1201
 3419SOL    HW210393   4.043   3.817   2.627 -0.7494 -0.3323  0.2454
 3420SOL     OW10394   3.055   3.826   3.582 -0.3534  0.0431 -0.1305
 3420SOL    HW110395   3.114   3.874   3.524 -1.5349 -0.3080 -1.7015
 3420SOL    HW210396   3.111   3.761   3.625  0.9612  1.7540  0.8597
 3421SOL     OW10397   0.236   1.596   0.331 -0.5325 -0.2814  0.0423
 3421SOL    HW110398   0.233   1.510   0.288 -0.4601 -0.1320 -0.2694
 3421SOL    HW210399   0.208   1.579   0.421 -0.7072 -0.5977 -0.0685
 3422SOL     OW10400   1.848   0.989   3.552  0.4220  0.2940  0.1403
 3422SOL    HW110401   1.841   0.895   3.535  0.1517 -0.2522  2.8189
 3422SOL    HW210402   1.865   1.028   3.466  0.7385 -2.2010 -1.0137
 3423SOL     OW10403   3.658   2.039   2.350 -0.0851  0.1800  0.2199
 3423SOL    HW110404   3.728   2.081   2.300  0.3324 -0.1526  0.5133
 3423SOL    HW210405   3.578   2.063   2.304  0.3256 -0.5124 -0.8955
 3424SOL     OW10406   4.333   4.145   4.056 -0.4553  0.1939 -0.5110
 3424SOL    HW110407   4.276   4.076   4.023 -0.9205  0.1680  0.3171
 3424SOL    HW210408   4.359   4.114   4.143  0.9065  0.1600 -0.9043
 3425SOL     OW10409   3.422   3.113   0.651 -0.2594 -0.2033  0.6411
 3425SOL    HW110410   3.369   3.044   0.611  0.0666 -1.6141  2.4807
 3425SOL    HW210411   3.481   3.140   0.581  1.4742 -3.7650  0.4642
 3426SOL     OW10412   0.283   4.914   1.955  0.1275  0.3455  0.0006
 3426SOL    HW110413   0.341   4.892   2.028 -0.6642 -0.9313  0.2718
 3426SOL    HW210414   0.230   4.836   1.941 -0.6465  1.0257 -1.0935
 3427SOL     OW10415   1.295   0.742   0.086  0.0809  0.1141 -0.3474
 3427SOL    HW110416   1.384   0.738   0.121 -0.2158  0.1697  0.4174
 3427SOL    HW210417   1.263   0.828   0.112  0.3084  0.6964 -1.8790
 3428SOL     OW10418   3.840   0.453   2.100 -0.4693 -0.0848  0.7145
 3428SOL    HW110419   3.792   0.376   2.131 -2.6634  0.6454 -0.6012
 3428SOL    HW210420   3.779   0.496   2.040  1.8977  0.9543 -1.0820
 3429SOL     OW10421   0.584   0.769   2.758 -0.3906  0.0032 -0.4147
 3429SOL    HW110422   0.582   0.862   2.736  2.0348 -0.0798 -1.3145
 3429SOL    HW210423   0.655   0.734   2.705  0.1554 -1.9446  1.4667
 3430SOL     OW10424   0.682   2.619   2.215 -0.4395  0.4800 -0.6413
 3430SOL    HW110425   0.659   2.678   2.287  1.3653 -0.1139  0.4793
 3430SOL    HW210426   0.775   2.601   2.227 -1.1461 -3.7296 -0.0532
 3431SOL     OW10427   4.531   1.516   2.578  0.3203 -0.8410 -0.6894
 3431SOL    HW110428   4.606   1.567   2.547 -1.2423  2.2665  0.1911
 3431SOL    HW210429   4.569   1.448   2.633  2.6451  3.1531  3.3770
 3432SOL     OW10430   0.203   1.298   4.374  0.2622  0.5372  0.3693
 3432SOL    HW110431   0.174   1.348   4.451  0.2306 -1.3868  1.6675
 3432SOL    HW210432   0.292   1.330   4.358  0.5619  0.4347  1.6936
 3433SOL     OW10433   1.247   4.578   1.234  0.2186  0.6830 -0.3377
 3433SOL    HW110434   1.278   4.490   1.256 -1.2334  0.5030  1.2289
 3433SOL    HW210435   1.183   4.599   1.303 -0.7539  2.2630 -1.6401
 3434SOL     OW10436   2.667   1.926   1.090  0.5155 -0.3975 -0.0234
 3434SOL    HW110437   2.642   1.850   1.143  0.0284  1.5029  2.6737
 3434SOL    HW210438   2.748   1.957   1.129  0.4617  0.7555 -0.7776
 3435SOL     OW10439   0.270   2.105   1.002 -0.0367 -0.2703  0.4860
 3435SOL    HW110440   0.292   2.189   1.042  0.1906 -0.3490  0.5248
 3435SOL    HW210441   0.342   2.087   0.941 -1.8528  1.3781 -2.3895
 3436SOL     OW10442   1.945   2.621   0.661  0.2461  0.0555 -0.3862
 3436SOL    HW110443   1.887   2.623   0.737 -0.2045  1.9764 -0.7340
 3436SOL    HW210444   1.978   2.531   0.658 -1.3657 -0.6126  0.8314
 3437SOL     OW10445   1.300   2.628   2.824  0.0803 -0.2719 -0.0086
 3437SOL    HW110446   1.273   2.627   2.733 -0.2954 -0.6810  0.1043
 3437SOL    HW210447   1.396   2.633   2.821  0.0723 -0.3873 -0.4241
 3438SOL     OW10448   1.575   4.653   0.891 -0.1987  0.5225 -1.3249
 3438SOL    HW110449   1.483   4.664   0.915 -0.1213 -0.5776 -0.3962
 3438SOL    HW210450   1.604   4.578   0.943  1.4299  1.3087 -1.0235
 3439SOL     OW10451   1.973   4.020   0.985 -0.0254  0.1582  0.0885
 3439SOL    HW110452   1.960   4.065   1.069  0.6266 -1.6630  1.2348
 3439SOL    HW210453   1.925   3.937   0.994  1.9118 -1.1007 -0.3938
 3440SOL     OW10454   4.838   1.984   0.732 -0.7145  0.3810  0.2007
 3440SOL    HW110455   4.797   2.019   0.811  0.6388 -0.2619  1.2294
 3440SOL    HW210456   4.915   1.937   0.764 -1.1119 -1.4389 -1.3380
 3441SOL     OW10457   3.791   0.811   2.284  0.2028  0.1771  0.4185
 3441SOL    HW110458   3.788   0.872   2.358 -1.1278 -1.6781  2.0101
 3441SOL    HW210459   3.782   0.866   2.207 -0.8616  2.0174  1.7724
 3442SOL     OW10460   0.585   4.756   2.922 -0.3627 -0.3716 -0.7729
 3442SOL    HW110461   0.495   4.770   2.951  0.5016  1.8893  1.2036
 3442SOL    HW210462   0.608   4.837   2.876  1.4032  0.3261  1.1191
 3443SOL     OW10463   3.537   1.381   0.254 -0.2040 -0.1364 -0.4232
 3443SOL    HW110464   3.477   1.366   0.328 -0.5808  0.0291 -0.6877
 3443SOL    HW210465   3.545   1.296   0.212  1.6006 -0.7185  0.9533
 3444SOL     OW10466   1.371   2.083   2.449 -0.0094 -0.0811  0.4525
 3444SOL    HW110467   1.401   2.167   2.484 -1.0669  0.1836  0.7457
 3444SOL    HW210468   1.386   2.090   2.354  0.0008  0.3966  0.4862
 3445SOL     OW10469   2.474   1.596   1.916 -0.3336  0.5842  0.2420
 3445SOL    HW110470   2.482   1.557   2.003 -1.1066 -1.5375 -0.5671
 3445SOL    HW210471   2.383   1.623   1.910 -0.6499 -0.5281 -0.3493
 3446SOL     OW10472   1.405   3.299   4.431  0.4483  0.4360 -0.0100
 3446SOL    HW110473   1.427   3.323   4.341  1.6939  0.2094  0.2086
 3446SOL    HW210474   1.490   3.281   4.471  0.0768  2.1069  1.6666
 3447SOL     OW10475   3.093   2.031   2.069 -0.0951  0.5105 -0.1914
 3447SOL    HW110476   3.004   1.996   2.075 -0.2574  0.8477 -0.5631
 3447SOL    HW210477   3.148   1.966   2.112 -0.4549  0.0520 -0.4266
 3448SOL     OW10478   0.615   2.447   3.207  0.3234  0.8515 -0.9121
 3448SOL    HW110479   0.590   2.464   3.298  0.6822  2.8285 -1.1476
 3448SOL    HW210480   0.682   2.379   3.213 -0.8923 -0.2984  0.1556
 3449SOL     OW10481   0.556   2.008   0.109  0.7281 -0.4004 -0.4849
 3449SOL    HW110482   0.504   1.971   0.180  0.1634  0.2584 -0.5437
 3449SOL    HW210483   0.497   2.069   0.065  1.9484  1.4092  0.2742
 3450SOL     OW10484   2.806   0.734   2.899  0.9789  0.0548 -0.5714
 3450SOL    HW110485   2.832   0.643   2.883  2.3122  0.4889 -1.0260
 3450SOL    HW210486   2.833   0.752   2.989 -0.9823 -0.5311  0.1886
 3451SOL     OW10487   3.878   0.229   3.053  0.0716  0.6694  0.2347
 3451SOL    HW110488   3.896   0.170   3.126 -1.9882 -0.1420  0.1484
 3451SOL    HW210489   3.916   0.184   2.977  1.0747  0.8864  0.5959
 3452SOL     OW10490   1.023   2.977   1.077 -0.1789 -0.7979 -0.7260
 3452SOL    HW110491   0.979   2.894   1.096 -0.8861 -0.8227 -2.3105
 3452SOL    HW210492   0.961   3.024   1.021  1.0707 -0.0724 -1.5347
 3453SOL     OW10493   4.863   3.547   1.186 -0.3210  0.2873 -0.4622
 3453SOL    HW110494   4.798   3.610   1.218 -0.7928 -0.8014  0.8464
 3453SOL    HW210495   4.927   3.600   1.139 -0.2669  1.8763  1.2570
 3454SOL     OW10496   2.666   4.422   2.036 -0.0508  0.0236 -0.0001
 3454SOL    HW110497   2.703   4.338   2.008 -1.0434 -0.0806 -1.0880
 3454SOL    HW210498   2.604   4.445   1.967 -0.3875  1.2631  0.6848
 3455SOL     OW10499   3.786   0.578   1.780 -0.4202 -0.0380 -0.5947
 3455SOL    HW110500   3.814   0.658   1.823 -0.3675  0.9921 -2.4469
 3455SOL    HW210501   3.700   0.599   1.742 -0.2168 -0.7006 -1.4664
 3456SOL     OW10502   2.742   0.846   3.197 -0.3332  0.0397  0.3192
 3456SOL    HW110503   2.756   0.934   3.232 -1.0094  0.0898  0.4713
 3456SOL    HW210504   2.830   0.815   3.176 -0.0933  0.7821  0.1867
 3457SOL     OW10505   1.228   4.650   4.254  0.3968  0.1878 -0.2942
 3457SOL    HW110506   1.187   4.596   4.187 -0.1660  1.5536 -1.0912
 3457SOL    HW210507   1.229   4.738   4.217 -0.2823  1.0627  1.6148
 3458SOL     OW10508   3.689   2.255   3.148 -0.1397 -0.2366  0.4859
 3458SOL    HW110509   3.608   2.248   3.096 -0.4727  0.6346  0.8733
 3458SOL    HW210510   3.745   2.185   3.114 -0.8841 -0.5655 -0.0983
 3459SOL     OW10511   3.896   3.474   4.702  0.3424  0.1756 -0.0789
 3459SOL    HW110512   3.865   3.547   4.755 -0.0754 -0.0133 -0.0559
 3459SOL    HW210513   3.863   3.492   4.614 -1.9371 -1.2083  0.4019
 3460SOL     OW10514   3.834   4.139   4.462  0.4176  0.1538  0.0830
 3460SOL    HW110515   3.892   4.092   4.522  0.5505  0.1084 -0.0807
 3460SOL    HW210516   3.783   4.197   4.518  0.8755  0.4598  0.1853
 3461SOL     OW10517   3.248   3.449   3.192  0.2639 -0.1573 -0.7927
 3461SOL    HW110518   3.265   3.395   3.115 -0.2061 -1.0885 -0.2603
 3461SOL    HW210519   3.304   3.411   3.261 -0.0272  0.0659 -0.4267
 3462SOL     OW10520   1.633   4.189   0.198  0.4858 -0.2527  0.5204
 3462SOL    HW110521   1.703   4.177   0.262  0.0143  0.7653  1.2663
 3462SOL    HW210522   1.650   4.275   0.159  0.7288 -0.8337 -0.6936
 3463SOL     OW10523   1.854   2.657   0.371  0.4591 -0.1762 -0.1598
 3463SOL    HW110524   1.891   2.570   0.382 -0.0347 -0.4063 -0.2736
 3463SOL    HW210525   1.866   2.699   0.456  3.4520  0.7521 -0.9423
 3464SOL     OW10526   5.006   2.782   2.386 -0.0930  0.1242 -0.9731
 3464SOL    HW110527   4.923   2.796   2.339 -1.9919  1.2151  2.3625
 3464SOL    HW210528   5.072   2.826   2.332 -2.4575  3.2486 -1.5802
 3465SOL     OW10529   0.967   1.427   1.851 -0.1948 -0.0705  0.3900
 3465SOL    HW110530   1.036   1.491   1.866  0.9602 -1.3897  0.9336
 3465SOL    HW210531   0.927   1.414   1.937 -1.3098  0.8625  0.0340
 3466SOL     OW10532   4.673   4.312   4.671  0.3509 -0.0350  0.1426
 3466SOL    HW110533   4.588   4.355   4.661 -0.3492 -1.4708 -0.4818
 3466SOL    HW210534   4.679   4.293   4.764 -1.1554 -2.0061 -0.0861
 3467SOL     OW10535   0.860   4.827   2.121 -0.3536 -0.1223  0.0668
 3467SOL    HW110536   0.900   4.849   2.205  0.9878  2.2067 -1.0566
 3467SOL    HW210537   0.817   4.909   2.094 -0.8567 -0.8591 -1.4478
 3468SOL     OW10538   0.777   2.881   3.990  0.2578 -0.0261 -0.3529
 3468SOL    HW110539   0.684   2.904   4.001 -0.2736 -0.8980 -2.4963
 3468SOL    HW210540   0.824   2.958   4.023 -1.0775 -0.3905  2.8323
 3469SOL     OW10541   2.385   4.872   3.564 -0.0874 -0.3879 -0.0303
 3469SOL    HW110542   2.434   4.832   3.636 -0.1773  0.1806  0.3605
 3469SOL    HW210543   2.304   4.822   3.559  0.0998 -0.6909 -0.0049
 3470SOL     OW10544   3.420   1.694   1.271 -0.0708  1.0138 -0.1408
 3470SOL    HW110545   3.382   1.753   1.336 -1.6989 -2.0150  1.8907
 3470SOL    HW210546   3.345   1.656   1.225  0.6965 -1.3102  0.4051
 3471SOL     OW10547   1.927   2.122   3.382 -0.7073 -0.2597 -0.1244
 3471SOL    HW110548   1.888   2.060   3.320  0.0073  0.8931 -1.8145
 3471SOL    HW210549   1.893   2.207   3.356  0.3227  0.3620  0.4835
 3472SOL     OW10550   4.007   0.160   3.640  0.8327  0.7089  0.4182
 3472SOL    HW110551   4.034   0.090   3.581 -1.5880  0.9484 -1.1350
 3472SOL    HW210552   4.041   0.135   3.726  0.4307 -2.1321 -0.1692
 3473SOL     OW10553   1.157   0.402   0.706  0.1012 -0.3918  0.3431
 3473SOL    HW110554   1.242   0.361   0.690 -0.5056 -1.8811  0.7917
 3473SOL    HW210555   1.158   0.422   0.800  0.2983  0.4360  0.1732
 3474SOL     OW10556   1.062   4.434   0.484 -0.2094  0.1631  0.6144
 3474SOL    HW110557   1.029   4.520   0.458 -0.5494  0.3225  1.5374
 3474SOL    HW210558   1.084   4.444   0.576  2.9575  0.2226 -0.0477
 3475SOL     OW10559   1.316   1.394   1.148 -0.1696 -0.4857  0.0715
 3475SOL    HW110560   1.394   1.449   1.156  0.2632 -0.9666 -0.8531
 3475SOL    HW210561   1.279   1.416   1.063 -1.0172 -0.3199  0.4629
 3476SOL     OW10562   1.027   3.372   4.075 -0.3530  0.1907 -0.3317
 3476SOL    HW110563   0.977   3.291   4.067 -2.0764  1.0296  1.0411
 3476SOL    HW210564   1.050   3.376   4.168  1.9594  0.0716 -0.8457
 3477SOL     OW10565   0.969   0.392   0.436 -0.1949 -0.3826  0.2265
 3477SOL    HW110566   1.049   0.385   0.489 -1.0516  1.9174  1.9718
 3477SOL    HW210567   1.000   0.411   0.348  1.2349  1.9600  1.1495
 3478SOL     OW10568   4.270   2.967   1.491 -0.2363 -0.0173  0.4222
 3478SOL    HW110569   4.190   2.927   1.457  0.9857 -1.7612 -0.5831
 3478SOL    HW210570   4.280   3.047   1.440  0.3934 -1.4953 -1.9349
 3479SOL     OW10571   4.705   3.188   3.174  0.2337  0.0497  0.2674
 3479SOL    HW110572   4.685   3.182   3.268 -0.7172  1.6369  0.2029
 3479SOL    HW210573   4.623   3.164   3.131  0.1531  0.9525 -0.1059
 3480SOL     OW10574   4.178   1.076   4.516 -0.1193  0.1189 -0.0553
 3480SOL    HW110575   4.143   1.127   4.443 -0.9171 -0.9056 -0.4019
 3480SOL    HW210576   4.172   0.985   4.488  1.2669 -0.2003  0.5682
 3481SOL     OW10577   4.201   3.265   0.565  0.2107 -0.7549 -0.3171
 3481SOL    HW110578   4.119   3.311   0.545  0.9657  0.4309 -0.8157
 3481SOL    HW210579   4.173   3.181   0.601 -1.2243 -0.7280 -1.2750
 3482SOL     OW10580   2.301   0.463   3.800 -0.2621 -0.6795  0.0098
 3482SOL    HW110581   2.313   0.370   3.783 -0.9169 -0.7099 -0.3339
 3482SOL    HW210582   2.254   0.495   3.723 -1.2463 -0.3380  0.7405
 3483SOL     OW10583   2.865   1.527   2.287  0.2009  0.7732  0.2334
 3483SOL    HW110584   2.945   1.478   2.273 -0.0220  0.3816  0.3226
 3483SOL    HW210585   2.831   1.495   2.371  0.5162  1.7130  0.7407
 3484SOL     OW10586   2.978   0.312   4.499 -0.0419  0.1664  0.2802
 3484SOL    HW110587   3.002   0.394   4.541  3.3655  0.4241 -1.8228
 3484SOL    HW210588   2.963   0.251   4.571  2.0297  1.4513  1.8984
 3485SOL     OW10589   2.580   2.454   4.871 -0.1761 -0.8899  0.3960
 3485SOL    HW110590   2.640   2.507   4.818 -2.4172  0.4602 -0.9205
 3485SOL    HW210591   2.573   2.501   4.954 -0.9232  0.0622 -0.1863
 3486SOL     OW10592   4.606   3.524   4.068 -0.6998  0.0133 -0.0934
 3486SOL    HW110593   4.596   3.437   4.108 -1.0852  0.2288  0.2807
 3486SOL    HW210594   4.698   3.546   4.084 -0.4821 -0.5127 -0.5789
 3487SOL     OW10595   4.511   1.621   0.271 -0.1467 -0.4910  0.3402
 3487SOL    HW110596   4.487   1.652   0.359  1.1897  0.7226  0.3081
 3487SOL    HW210597   4.441   1.561   0.247 -1.2312  0.1735  1.7011
 3488SOL     OW10598   0.682   3.094   2.459 -0.1221 -0.1121 -0.1644
 3488SOL    HW110599   0.719   3.181   2.468 -0.4437  0.2057 -1.6195
 3488SOL    HW210600   0.704   3.068   2.369 -1.3544 -0.8839 -0.2660
 3489SOL     OW10601   4.673   2.532   4.387 -0.3407 -0.1440  0.3400
 3489SOL    HW110602   4.722   2.587   4.326  0.0780 -1.6295 -0.7149
 3489SOL    HW210603   4.741   2.483   4.435 -0.7153 -0.3710  0.6449
 3490SOL     OW10604   0.777   1.705   0.434 -0.2760  0.0369  0.1535
 3490SOL    HW110605   0.785   1.646   0.359  3.9529  0.4413  0.0286
 3490SOL    HW210606   0.731   1.654   0.501  0.3120 -2.1802 -1.0641
 3491SOL     OW10607   0.413   3.171   2.169  0.5684  0.0828  0.7150
 3491SOL    HW110608   0.454   3.249   2.130  2.2148 -0.5765  1.0256
 3491SOL    HW210609   0.475   3.144   2.237  0.2464 -1.7555  0.3165
 3492SOL     OW10610   2.365   2.046   2.491 -0.1228  0.0997  0.0003
 3492SOL    HW110611   2.422   2.117   2.459  0.2147  0.6957  1.8198
 3492SOL    HW210612   2.395   2.029   2.580 -1.1298 -1.3830  0.0931
 3493SOL     OW10613   2.943   1.720   3.658 -0.2219  0.4305 -0.0695
 3493SOL    HW110614   2.974   1.753   3.742 -0.0800  0.8366 -0.2773
 3493SOL    HW210615   2.957   1.793   3.597  2.3052 -0.7355 -1.0577
 3494SOL     OW10616   4.298   2.219   1.017  0.2479  0.1857 -0.8073
 3494SOL    HW110617   4.240   2.145   1.002  1.6185 -1.3450  0.8349
 3494SOL    HW210618   4.248   2.296   0.992 -1.3147 -1.2766 -2.3753
 3495SOL     OW10619   3.520   2.876   2.069 -0.1283  0.7564  0.0491
 3495SOL    HW110620   3.493   2.789   2.099  1.3893  0.8805  2.0301
 3495SOL    HW210621   3.445   2.932   2.086 -1.0123 -0.0906 -0.9610
 3496SOL     OW10622   4.851   3.725   3.743 -1.0571  0.3537 -0.2147
 3496SOL    HW110623   4.903   3.710   3.822 -1.8187  0.7731  0.3866
 3496SOL    HW210624   4.853   3.820   3.731 -1.1723  0.3152 -0.5426
 3497SOL     OW10625   3.665   0.147   4.129 -0.0938  0.1496 -0.0986
 3497SOL    HW110626   3.617   0.220   4.090 -1.0259 -0.4072 -0.0068
 3497SOL    HW210627   3.757   0.174   4.122 -0.4914  2.5600  2.3350
 3498SOL     OW10628   1.164   0.395   1.679 -0.1511  0.2745  0.4597
 3498SOL    HW110629   1.152   0.352   1.595 -1.3766  1.0031  0.2532
 3498SOL    HW210630   1.247   0.359   1.712  0.3480 -0.0135 -1.0387
 3499SOL     OW10631   4.147   0.397   3.099  0.4494 -0.1155  0.2636
 3499SOL    HW110632   4.106   0.373   3.182  1.6444 -0.1596  0.8593
 3499SOL    HW210633   4.074   0.404   3.037 -0.5357  0.6432  1.4720
 3500SOL     OW10634   3.068   0.715   3.376 -0.2371  0.0937  0.5044
 3500SOL    HW110635   3.153   0.683   3.406 -0.9026 -0.3293  2.0395
 3500SOL    HW210636   3.010   0.639   3.380 -1.0584  0.7317  0.9965
 3501SOL     OW10637   4.535   1.955   1.881 -0.1969  0.3616  0.1378
 3501SOL    HW110638   4.444   1.939   1.903  0.1670  0.4936  1.9194
 3501SOL    HW210639   4.534   2.039   1.834 -0.9180  0.8292  0.9509
 3502SOL     OW10640   1.906   0.758   0.329 -0.3279  0.1308 -0.1230
 3502SOL    HW110641   1.868   0.713   0.253 -1.9862 -1.7666  1.6717
 3502SOL    HW210642   1.879   0.849   0.319 -2.0393 -0.4160 -0.9303
 3503SOL     OW10643   3.248   0.785   4.791 -0.5318  0.5843 -0.2844
 3503SOL    HW110644   3.282   0.835   4.865  0.9806 -0.8018  0.0288
 3503SOL    HW210645   3.184   0.725   4.830 -0.6048  0.6574 -0.2908
 3504SOL     OW10646   4.937   1.199   3.530  0.1007  0.0712 -0.0623
 3504SOL    HW110647   4.971   1.211   3.618  0.7259  1.0922 -0.4214
 3504SOL    HW210648   4.947   1.285   3.488 -1.0202 -0.1478 -0.8462
 3505SOL     OW10649   0.027   2.864   0.728 -0.1062 -0.2372 -0.0406
 3505SOL    HW110650   0.006   2.834   0.640  1.8485 -2.2245  0.0929
 3505SOL    HW210651   0.040   2.959   0.719  1.5086 -0.6028 -2.2329
 3506SOL     OW10652   3.682   1.389   3.901  0.4001 -0.4957 -0.2684
 3506SOL    HW110653   3.619   1.437   3.954  0.6730  1.2935 -1.4743
 3506SOL    HW210654   3.767   1.410   3.940  0.4666 -0.6740 -0.3158
 3507SOL     OW10655   3.838   4.603   0.920  0.7083 -0.1887  0.0660
 3507SOL    HW110656   3.832   4.644   0.833 -2.0221 -1.0643 -0.2433
 3507SOL    HW210657   3.902   4.532   0.909 -1.3563 -1.8792 -1.9858
 3508SOL     OW10658   3.516   1.274   2.563  0.4225 -0.7507 -0.3615
 3508SOL    HW110659   3.491   1.240   2.477  0.3345 -0.5995 -0.3955
 3508SOL    HW210660   3.520   1.369   2.551  2.5645 -0.8499 -0.7849
 3509SOL     OW10661   3.408   1.201   1.002 -0.1058  0.3581  0.2730
 3509SOL    HW110662   3.429   1.130   1.063  0.8264  0.6458  0.2942
 3509SOL    HW210663   3.316   1.185   0.978 -0.0685 -0.5413  0.6892
 3510SOL     OW10664   4.173   2.380   2.713 -0.2115  0.3907  0.1438
 3510SOL    HW110665   4.095   2.365   2.660 -0.4699  1.8052  0.0656
 3510SOL    HW210666   4.213   2.294   2.724 -1.2501 -0.2062 -0.6462
 3511SOL     OW10667   4.844   2.020   2.138 -0.7219  0.0421  0.1102
 3511SOL    HW110668   4.771   2.065   2.181 -0.1698  0.4021  0.7058
 3511SOL    HW210669   4.830   1.927   2.157 -0.1175  0.2435  1.7263
 3512SOL     OW10670   2.233   1.899   4.136  0.2781  0.0987 -0.1265
 3512SOL    HW110671   2.206   1.808   4.148  0.2967  0.1050 -0.0397
 3512SOL    HW210672   2.328   1.895   4.134  0.2697 -0.1905 -2.4032
 3513SOL     OW10673   0.184   3.422   3.683 -0.4307 -0.8032  0.3808
 3513SOL    HW110674   0.218   3.496   3.632  0.7212 -0.2695  1.8388
 3513SOL    HW210675   0.092   3.444   3.698 -0.5705 -0.5672 -0.7167
 3514SOL     OW10676   3.308   1.003   4.487  0.4664  0.4153  0.4789
 3514SOL    HW110677   3.367   0.930   4.468 -0.5057 -1.4707  3.7582
 3514SOL    HW210678   3.348   1.047   4.562 -0.1022  1.8813 -0.0462
 3515SOL     OW10679   4.481   0.307   4.117  0.2216 -0.7908 -0.0764
 3515SOL    HW110680   4.389   0.283   4.119  0.0193 -0.0169  1.4629
 3515SOL    HW210681   4.494   0.348   4.032 -0.3881 -2.5900 -1.0630
 3516SOL     OW10682   0.343   0.169   1.908  0.1952 -0.4975  0.2619
 3516SOL    HW110683   0.270   0.206   1.958  1.0065 -0.8934  1.8230
 3516SOL    HW210684   0.310   0.085   1.876 -0.3207 -0.2682  0.1856
 3517SOL     OW10685   0.490   1.598   1.030  0.2559  0.2921 -0.9327
 3517SOL    HW110686   0.420   1.659   1.055  0.8526  1.3863 -1.8092
 3517SOL    HW210687   0.571   1.647   1.045  0.8039 -0.6904 -0.6231
 3518SOL     OW10688   2.740   4.304   1.627 -0.0872 -0.6141  0.2253
 3518SOL    HW110689   2.707   4.344   1.547 -0.2751 -2.9049 -0.9370
 3518SOL    HW210690   2.826   4.344   1.640 -0.7992  1.1032 -0.0587
 3519SOL     OW10691   2.234   0.141   1.957 -0.2256  0.5244 -0.2269
 3519SOL    HW110692   2.166   0.089   2.000  0.5709 -0.7510 -0.4854
 3519SOL    HW210693   2.276   0.188   2.029 -1.5221  1.5384 -0.0884
 3520SOL     OW10694   3.259   2.648   1.506 -0.4451  0.1977  0.2633
 3520SOL    HW110695   3.322   2.713   1.536  0.1459  0.2018 -0.9126
 3520SOL    HW210696   3.174   2.692   1.510 -0.4089  0.1679  1.9366
 3521SOL     OW10697   0.431   1.299   4.750  0.4031 -0.8729 -0.2373
 3521SOL    HW110698   0.487   1.330   4.821  2.6739 -3.6604 -0.6621
 3521SOL    HW210699   0.350   1.272   4.794  0.6395  0.1222  0.8609
 3522SOL     OW10700   1.929   0.316   2.336 -0.1256  0.0269  0.2949
 3522SOL    HW110701   1.933   0.405   2.300  0.7432 -0.0414  0.2090
 3522SOL    HW210702   1.910   0.260   2.261 -2.2907  0.2750  0.5863
 3523SOL     OW10703   2.807   1.262   2.168  0.2505  0.2422  0.0107
 3523SOL    HW110704   2.859   1.290   2.243 -0.5362  1.8820 -0.0283
 3523SOL    HW210705   2.840   1.315   2.095  0.4498 -0.7539 -0.6431
 3524SOL     OW10706   2.431   4.438   2.712  0.3059  0.2447  0.6493
 3524SOL    HW110707   2.476   4.480   2.638 -1.3966 -0.1484 -0.6923
 3524SOL    HW210708   2.420   4.347   2.684 -2.4436  0.5975  0.2741
 3525SOL     OW10709   4.233   4.956   2.853 -0.7530 -0.0897 -0.0354
 3525SOL    HW110710   4.319   4.986   2.825 -1.5342  0.2465 -2.3344
 3525SOL    HW210711   4.250   4.886   2.915  1.1418  1.2704  1.0588
 3526SOL     OW10712   1.313   1.941   4.415 -0.2486 -0.2625  0.0909
 3526SOL    HW110713   1.231   1.896   4.397  0.1761 -0.5542 -1.1916
 3526SOL    HW210714   1.287   2.033   4.428 -0.9196 -0.5746  1.0541
 3527SOL     OW10715   0.352   3.021   1.852  0.0225 -0.2698  0.0692
 3527SOL    HW110716   0.271   3.069   1.841  0.4340  0.6370  0.8884
 3527SOL    HW210717   0.375   3.032   1.944  0.6343 -1.2280  0.0505
 3528SOL     OW10718   1.575   2.108   0.343  0.3870  0.4724 -0.7390
 3528SOL    HW110719   1.572   2.162   0.422 -2.6994  1.3880 -1.3273
 3528SOL    HW210720   1.573   2.171   0.271 -2.2726 -0.2829 -1.4461
 3529SOL     OW10721   1.751   3.261   2.524  0.0510  0.0121 -0.0196
 3529SOL    HW110722   1.821   3.212   2.481  0.5309 -0.7847  1.5726
 3529SOL    HW210723   1.686   3.195   2.548  0.6890  0.0687  2.1265
 3530SOL     OW10724   2.997   0.229   4.744 -0.1194  0.2637  0.5089
 3530SOL    HW110725   3.068   0.293   4.736  0.3182 -0.2258  0.4063
 3530SOL    HW210726   3.034   0.158   4.796 -0.7113  0.2471  0.9127
 3531SOL     OW10727   1.664   1.259   4.991  0.2054  0.7479  0.0750
 3531SOL    HW110728   1.757   1.240   4.978  0.4124  1.7858  0.0039
 3531SOL    HW210729   1.624   1.173   4.998  1.5685  0.2233  2.9091
 3532SOL     OW10730   1.784   2.750   3.760  0.0406 -0.4275  0.1177
 3532SOL    HW110731   1.709   2.746   3.819 -0.8004  1.7282 -0.6889
 3532SOL    HW210732   1.746   2.768   3.674  1.4266 -0.1074 -0.4618
 3533SOL     OW10733   3.286   3.733   3.246  0.0932  0.0672 -0.1369
 3533SOL    HW110734   3.294   3.709   3.154  0.0338  0.1197 -0.1558
 3533SOL    HW210735   3.229   3.667   3.284 -0.6443  0.5708 -0.3413
 3534SOL     OW10736   1.792   3.079   0.911 -0.4295 -0.0281 -0.1271
 3534SOL    HW110737   1.807   3.044   0.999  2.7210  0.2545 -0.4541
 3534SOL    HW210738   1.795   3.174   0.922 -1.3541  0.0383 -0.3786
 3535SOL     OW10739   1.443   2.140   4.714 -0.6135  0.0528  0.3405
 3535SOL    HW110740   1.421   2.205   4.647 -0.6097 -0.1587  0.1341
 3535SOL    HW210741   1.527   2.169   4.748  0.9867 -1.5739 -1.9475
 3536SOL     OW10742   3.524   3.731   2.653  0.1664  0.0984  0.3505
 3536SOL    HW110743   3.565   3.813   2.681  0.8694  0.8372 -2.5117
 3536SOL    HW210744   3.430   3.748   2.662  0.3282  0.2657  2.1059
 3537SOL     OW10745   2.102   4.908   4.941  0.1533 -0.0610  0.8710
 3537SOL    HW110746   2.124   4.993   4.902 -1.1395  0.7853  1.8510
 3537SOL    HW210747   2.120   4.844   4.873  2.8603  0.7866  0.6834
 3538SOL     OW10748   2.920   4.039   2.072  0.0520  0.0040 -0.4748
 3538SOL    HW110749   2.911   4.059   2.165 -0.7077 -0.0624 -0.5274
 3538SOL    HW210750   2.859   3.967   2.056  0.0946  0.0872 -1.0447
 3539SOL     OW10751   2.383   0.542   1.885 -0.3881  0.2125 -0.6261
 3539SOL    HW110752   2.317   0.477   1.860  0.6689 -1.1740  0.0620
 3539SOL    HW210753   2.428   0.563   1.804  0.2498 -1.0797 -0.6318
 3540SOL     OW10754   2.992   1.912   4.481  0.3004  0.2072  0.0463
 3540SOL    HW110755   3.081   1.933   4.455  0.5799 -1.6735 -0.7079
 3540SOL    HW210756   2.990   1.925   4.576  1.3812  0.2733  0.0683
 3541SOL     OW10757   2.403   3.951   3.550  0.0311  0.5064 -0.2939
 3541SOL    HW110758   2.499   3.944   3.548  0.0715  0.9200  0.0433
 3541SOL    HW210759   2.373   3.884   3.489  0.4214 -1.4870  1.6172
 3542SOL     OW10760   1.201   2.828   0.954  0.2554  0.2646 -0.4684
 3542SOL    HW110761   1.268   2.892   0.930 -0.4702  0.7922 -1.1611
 3542SOL    HW210762   1.125   2.880   0.978 -0.3828 -0.3264 -1.1451
 3543SOL     OW10763   4.305   0.406   1.099 -0.3634  0.5836  0.3848
 3543SOL    HW110764   4.247   0.336   1.129 -2.0787  1.4505 -0.7383
 3543SOL    HW210765   4.279   0.482   1.150  0.9422  0.6128  1.0330
 3544SOL     OW10766   5.063   2.304   4.534  0.5297 -0.3141 -0.3830
 3544SOL    HW110767   5.044   2.307   4.440  3.6544 -1.4859 -1.1949
 3544SOL    HW210768   4.981   2.277   4.575 -0.9723  0.4303 -2.7470
 3545SOL     OW10769   4.456   1.257   2.756 -0.2848  0.0475  0.4574
 3545SOL    HW110770   4.512   1.180   2.766  0.6786  0.8615  1.5911
 3545SOL    HW210771   4.377   1.224   2.713 -0.2188 -1.6970  1.6001
 3546SOL     OW10772   4.965   2.545   2.529  0.2397 -0.2446  0.2417
 3546SOL    HW110773   5.005   2.628   2.504 -0.7852  0.4584  0.8555
 3546SOL    HW210774   4.891   2.534   2.468  0.9890 -1.2471 -0.5205
 3547SOL     OW10775   0.718   2.027   1.505  0.6545 -0.0855  0.9582
 3547SOL    HW110776   0.783   2.064   1.444  0.3409 -1.5918 -0.3559
 3547SOL    HW210777   0.769   1.971   1.563  0.9352  1.2457  2.0422
 3548SOL     OW10778   4.407   1.132   1.287  0.1775 -0.0984  0.3317
 3548SOL    HW110779   4.458   1.058   1.252 -0.9264 -1.5235  1.5981
 3548SOL    HW210780   4.469   1.178   1.344  0.1582 -1.7370  1.7576
 3549SOL     OW10781   0.978   1.686   0.862  0.0298  0.3904 -0.3619
 3549SOL    HW110782   1.030   1.605   0.866  0.6983  0.8328  1.8689
 3549SOL    HW210783   0.984   1.714   0.771  1.8617 -0.7704 -0.6665
 3550SOL     OW10784   2.109   4.596   4.321  0.5013  0.4050  0.4736
 3550SOL    HW110785   2.036   4.589   4.382  0.2706  0.4313  0.2032
 3550SOL    HW210786   2.069   4.619   4.237  0.7472 -0.2444  0.1656
 3551SOL     OW10787   2.352   3.841   0.363  0.1293 -0.0851 -0.2766
 3551SOL    HW110788   2.280   3.902   0.351  0.8452  1.0324  0.8669
 3551SOL    HW210789   2.315   3.756   0.339 -1.3089  0.5709 -0.5191
 3552SOL     OW10790   2.130   0.685   4.275 -0.2080  0.1284 -0.2500
 3552SOL    HW110791   2.048   0.691   4.325 -0.2719  1.8217 -0.4826
 3552SOL    HW210792   2.105   0.641   4.194 -1.2561  1.8342 -0.9215
 3553SOL     OW10793   2.691   1.459   4.280 -0.6551  0.4405  0.3804
 3553SOL    HW110794   2.777   1.449   4.320  0.5213 -0.3378 -2.1338
 3553SOL    HW210795   2.645   1.378   4.302 -0.9477  1.0381  2.0885
 3554SOL     OW10796   2.381   1.451   2.150 -0.4332 -0.4939 -0.0506
 3554SOL    HW110797   2.295   1.408   2.151  0.7352 -3.0888 -1.5652
 3554SOL    HW210798   2.433   1.400   2.212  0.9553 -1.2422 -1.7620
 3555SOL     OW10799   1.032   0.147   3.016 -0.0579 -0.0124 -0.3343
 3555SOL    HW110800   1.065   0.139   3.106  1.9607  1.5091 -0.8519
 3555SOL    HW210801   1.079   0.222   2.981 -1.9736  0.3867 -2.2004
 3556SOL     OW10802   4.475   4.583   2.830  0.3881  0.1752  0.2914
 3556SOL    HW110803   4.495   4.531   2.908  0.5741 -0.7793 -0.3685
 3556SOL    HW210804   4.431   4.521   2.771  3.9434 -0.3911 -2.0661
 3557SOL     OW10805   4.329   1.521   2.376  0.1110  0.4050 -0.6858
 3557SOL    HW110806   4.399   1.524   2.441 -1.6324  1.7050  1.2723
 3557SOL    HW210807   4.355   1.585   2.309 -0.2322  2.6690  1.2168
 3558SOL     OW10808   3.681   0.594   3.089 -0.3131 -0.1731  0.0535
 3558SOL    HW110809   3.638   0.651   3.025 -1.9716 -1.6211 -0.1806
 3558SOL    HW210810   3.768   0.579   3.051 -0.7526  0.1528 -1.1488
 3559SOL     OW10811   2.258   4.684   3.975  1.0576  0.2567  0.1541
 3559SOL    HW110812   2.178   4.735   3.962  1.8897  1.7916  0.8291
 3559SOL    HW210813   2.227   4.595   3.992 -0.5561  0.9795  1.2497
 3560SOL     OW10814   2.727   1.292   1.343 -0.2677  0.6028  0.0120
 3560SOL    HW110815   2.646   1.243   1.358  0.0377  0.7173  2.3113
 3560SOL    HW210816   2.698   1.372   1.297 -1.1720 -0.2445 -0.9421
 3561SOL     OW10817   0.326   1.573   3.254 -0.0065  0.0204 -0.3718
 3561SOL    HW110818   0.390   1.572   3.325  0.3188 -0.8177 -0.6627
 3561SOL    HW210819   0.268   1.499   3.272 -0.8670  0.7237 -0.1513
 3562SOL     OW10820   3.825   1.132   4.873 -0.1237 -0.6318  0.4857
 3562SOL    HW110821   3.916   1.130   4.902  0.2926 -0.8121 -0.7881
 3562SOL    HW210822   3.824   1.197   4.802 -0.8510 -1.0916  0.0653
 3563SOL     OW10823   3.709   4.929   2.500 -0.4308 -0.6935 -0.1366
 3563SOL    HW110824   3.757   4.859   2.544 -0.9998 -1.1236 -0.1950
 3563SOL    HW210825   3.701   4.899   2.409  0.5211  0.0765 -0.4974
 3564SOL     OW10826   0.276   3.631   3.505  0.6591 -0.0971 -0.3845
 3564SOL    HW110827   0.218   3.698   3.542 -0.3209 -1.3865  0.4962
 3564SOL    HW210828   0.223   3.589   3.437  2.1603  1.6974 -2.8734
 3565SOL     OW10829   4.470   4.351   2.622  0.3686  0.3578 -0.6610
 3565SOL    HW110830   4.508   4.334   2.708  1.3089  0.3240 -1.0659
 3565SOL    HW210831   4.472   4.267   2.578  0.7909  0.5682 -1.0530
 3566SOL     OW10832   2.964   1.228   1.359  0.2741 -0.4447 -0.6066
 3566SOL    HW110833   2.873   1.255   1.360  0.6131  0.8289  0.8850
 3566SOL    HW210834   3.003   1.275   1.286 -0.3715 -1.5027 -1.6591
 3567SOL     OW10835   1.344   1.315   1.871 -0.0173  0.5801 -0.2070
 3567SOL    HW110836   1.281   1.258   1.828 -0.2883 -0.5893  1.6440
 3567SOL    HW210837   1.305   1.402   1.866 -0.3711  0.3670 -1.6133
 3568SOL     OW10838   2.999   1.233   2.797  0.0239  0.5086 -0.2699
 3568SOL    HW110839   2.937   1.163   2.780  0.8474 -0.2031 -0.3868
 3568SOL    HW210840   3.079   1.207   2.752  0.5567  1.1921  0.2444
 3569SOL     OW10841   4.066   3.135   1.263 -0.1367 -1.1103  0.0216
 3569SOL    HW110842   4.100   3.058   1.218  1.4722 -2.1643  2.8080
 3569SOL    HW210843   4.004   3.100   1.327  0.3182 -0.0558  1.0636
 3570SOL     OW10844   3.226   2.858   2.445  0.2473  0.0026 -0.0734
 3570SOL    HW110845   3.320   2.871   2.435  0.3901 -1.2838 -0.5961
 3570SOL    HW210846   3.209   2.772   2.405 -1.2144  0.4180 -0.4130
 3571SOL     OW10847   1.641   4.437   4.553  0.0521 -0.1687 -0.8186
 3571SOL    HW110848   1.600   4.516   4.517 -2.4375  0.1526  2.3255
 3571SOL    HW210849   1.579   4.367   4.536 -1.1687 -0.0346  2.3894
 3572SOL     OW10850   2.992   3.930   0.810  0.3221 -0.3199  0.0307
 3572SOL    HW110851   2.922   3.972   0.859  0.4410  0.2885 -0.3157
 3572SOL    HW210852   3.072   3.972   0.841  0.3150  0.8980 -1.4821
 3573SOL     OW10853   4.482   0.767   0.311 -0.1447  0.0333 -0.3290
 3573SOL    HW110854   4.401   0.772   0.260  0.1182 -1.7467 -1.0057
 3573SOL    HW210855   4.542   0.717   0.256  0.8656 -0.0855  0.8358
 3574SOL     OW10856   4.564   3.908   0.385 -0.1077 -0.1527  0.2078
 3574SOL    HW110857   4.506   3.858   0.328  2.6257 -0.7733 -2.2825
 3574SOL    HW210858   4.533   3.888   0.474 -2.9525 -1.2405 -0.9064
 3575SOL     OW10859   4.889   1.239   2.216 -0.1431 -0.0438  0.4243
 3575SOL    HW110860   4.814   1.179   2.219 -0.1763  0.0136  0.7786
 3575SOL    HW210861   4.960   1.187   2.178 -1.1713  0.7860 -2.9938
 3576SOL     OW10862   4.819   3.820   0.341 -0.4545  0.0865 -0.1260
 3576SOL    HW110863   4.817   3.803   0.247  1.3398 -1.4302  0.0576
 3576SOL    HW210864   4.734   3.860   0.360 -0.5511  1.1709 -2.4934
 3577SOL     OW10865   4.945   3.028   0.161  0.2698 -0.0672  0.8177
 3577SOL    HW110866   4.889   2.983   0.224  2.1691 -0.8784  2.0230
 3577SOL    HW210867   4.984   3.100   0.211 -0.9852  1.5853 -0.4794
 3578SOL     OW10868   2.092   0.758   1.129 -0.0228  1.5060  0.0133
 3578SOL    HW110869   2.129   0.743   1.216  1.3707  2.6150 -0.3600
 3578SOL    HW210870   2.003   0.723   1.135  1.0398 -1.3125  0.9352
 3579SOL     OW10871   2.900   1.421   1.975 -0.1466 -0.0725  0.0042
 3579SOL    HW110872   2.978   1.468   1.945  0.3246  0.1602  1.5430
 3579SOL    HW210873   2.828   1.480   1.953 -0.0610 -0.7453 -2.4129
 3580SOL     OW10874   0.175   3.945   1.526  0.1091 -0.6972 -0.2608
 3580SOL    HW110875   0.167   4.013   1.592 -2.7406 -0.3943 -0.7915
 3580SOL    HW210876   0.254   3.967   1.477 -0.7096  2.2655 -0.4219
 3581SOL     OW10877   2.337   1.545   0.354 -0.1413  0.5138 -0.0118
 3581SOL    HW110878   2.244   1.541   0.332 -0.2989  0.7501  0.6002
 3581SOL    HW210879   2.348   1.481   0.425  0.7542 -1.7561 -2.0304
 3582SOL     OW10880   4.824   2.309   3.305  0.1546  0.5989  0.1723
 3582SOL    HW110881   4.793   2.392   3.270  0.1614  0.5391  0.0243
 3582SOL    HW210882   4.768   2.293   3.382 -0.8695 -0.0066 -0.6757
 3583SOL     OW10883   4.338   3.736   0.317  0.1262  0.0791  0.0089
 3583SOL    HW110884   4.286   3.790   0.258 -2.3942 -0.4697  1.5694
 3583SOL    HW210885   4.284   3.728   0.397  1.0155 -3.4070  0.4446
 3584SOL     OW10886   3.860   1.160   4.104 -0.4480  0.1920  0.4303
 3584SOL    HW110887   3.795   1.133   4.169  0.6848  1.0958  2.0292
 3584SOL    HW210888   3.864   1.255   4.112  1.1206  0.1525  0.4803
 3585SOL     OW10889   0.037   2.277   1.462 -0.3949  0.7619 -0.0436
 3585SOL    HW110890   0.029   2.265   1.367 -2.2025  0.2312  0.1486
 3585SOL    HW210891   0.124   2.317   1.473 -0.5778  1.8377 -2.0033
 3586SOL     OW10892   1.241   2.284   2.795 -0.6120  0.4563  0.7956
 3586SOL    HW110893   1.244   2.378   2.782  1.6434  0.1402 -1.5788
 3586SOL    HW210894   1.332   2.257   2.803 -1.2564 -1.3781  3.2355
 3587SOL     OW10895   2.931   4.862   1.108 -0.7487  0.1909  0.8109
 3587SOL    HW110896   2.995   4.799   1.075  1.4922  1.9162  1.5835
 3587SOL    HW210897   2.889   4.898   1.030 -1.4310 -1.5500  0.3294
 3588SOL     OW10898   3.168   1.163   1.521 -0.3122 -0.2426 -0.7302
 3588SOL    HW110899   3.228   1.209   1.462 -0.8542  0.5824 -0.6626
 3588SOL    HW210900   3.082   1.174   1.479 -0.6760  0.2055  0.1215
 3589SOL     OW10901   0.689   2.016   2.847 -0.2071  0.2609 -0.3626
 3589SOL    HW110902   0.715   2.017   2.755  0.5783  0.6286 -0.1412
 3589SOL    HW210903   0.756   1.964   2.891 -1.9166 -2.1182 -0.3622
 3590SOL     OW10904   2.769   2.479   1.919 -0.3330  0.0276 -0.0151
 3590SOL    HW110905   2.681   2.484   1.883 -0.2272  0.7477 -0.1893
 3590SOL    HW210906   2.756   2.455   2.011 -0.6490 -0.9072 -0.2960
 3591SOL     OW10907   0.399   1.134   3.596 -0.6649 -0.5036 -0.0871
 3591SOL    HW110908   0.373   1.049   3.633 -0.1333 -0.2776  0.8146
 3591SOL    HW210909   0.489   1.120   3.566 -0.0770  0.1193  1.3200
 3592SOL     OW10910   1.971   3.101   0.412  0.4026  0.0156 -0.0911
 3592SOL    HW110911   1.995   3.013   0.440 -0.6095 -1.3115 -2.9897
 3592SOL    HW210912   1.996   3.105   0.319 -1.5501  1.9743 -0.6297
 3593SOL     OW10913   1.155   2.556   3.137  0.1854  0.3218 -0.8832
 3593SOL    HW110914   1.188   2.640   3.105 -0.2732 -0.0289 -2.3426
 3593SOL    HW210915   1.234   2.504   3.154  0.4551  0.8633 -0.4359
 3594SOL     OW10916   1.726   2.588   3.026 -0.4077  0.0024  0.3207
 3594SOL    HW110917   1.704   2.603   3.118 -1.3502 -0.5614  0.2054
 3594SOL    HW210918   1.796   2.523   3.028 -0.5663 -0.1599  0.6343
 3595SOL     OW10919   5.016   1.590   1.140  0.2752  0.5414 -0.3456
 3595SOL    HW110920   4.944   1.613   1.082  0.9506  2.0226 -0.6585
 3595SOL    HW210921   4.993   1.632   1.224 -0.4986 -1.2445  0.3929
 3596SOL     OW10922   4.268   1.637   1.546 -0.1579  0.3535 -0.2509
 3596SOL    HW110923   4.185   1.592   1.530  0.0178 -0.5050  1.0887
 3596SOL    HW210924   4.260   1.672   1.634  1.3267 -0.7918  0.3924
 3597SOL     OW10925   4.599   1.975   0.579  0.2219 -0.3649 -0.5174
 3597SOL    HW110926   4.549   2.056   0.567 -2.7609 -1.4573  2.8085
 3597SOL    HW210927   4.679   2.003   0.624 -0.2178  0.8912 -0.4718
 3598SOL     OW10928   3.224   0.522   0.128 -0.1165  0.6141  0.1375
 3598SOL    HW110929   3.309   0.481   0.110 -0.5108 -0.1903  0.0566
 3598SOL    HW210930   3.221   0.528   0.224 -0.6858 -0.9723  0.2463
 3599SOL     OW10931   3.909   2.556   1.804 -0.2726  0.7161 -0.1657
 3599SOL    HW110932   3.870   2.492   1.862  0.8628  0.6027  0.5060
 3599SOL    HW210933   3.864   2.638   1.824 -0.7765  0.4125 -0.0466
 3600SOL     OW10934   0.347   1.852   0.559  0.1144  0.1725 -0.0217
 3600SOL    HW110935   0.338   1.853   0.464 -0.4049  2.4614  0.0092
 3600SOL    HW210936   0.400   1.929   0.580  0.9926 -0.7666  1.5200
 3601SOL     OW10937   3.625   4.210   3.938  0.2972 -0.4118  0.4735
 3601SOL    HW110938   3.619   4.155   3.861  0.3776 -2.0902  1.6085
 3601SOL    HW210939   3.715   4.199   3.969  0.1445 -0.1088  1.0489
 3602SOL     OW10940   1.278   2.469   2.022  0.2524 -0.0641  0.1503
 3602SOL    HW110941   1.246   2.389   1.980  2.1384 -0.4425 -0.6906
 3602SOL    HW210942   1.306   2.525   1.949  0.4650  0.6746  0.7910
 3603SOL     OW10943   0.747   3.264   3.725  0.2157  0.4913  0.1378
 3603SOL    HW110944   0.833   3.237   3.758 -0.2487 -1.1017  0.1685
 3603SOL    HW210945   0.734   3.210   3.646 -1.4131 -0.5239  1.0339
 3604SOL     OW10946   0.911   3.264   1.785  0.0371 -0.6816 -0.5644
 3604SOL    HW110947   0.905   3.181   1.737 -0.5546 -0.3806 -1.0247
 3604SOL    HW210948   0.820   3.292   1.795  0.0455 -1.3556  1.8606
 3605SOL     OW10949   2.316   1.038   1.824 -0.4118  0.3602 -0.3922
 3605SOL    HW110950   2.354   1.126   1.819  0.4833 -0.0314 -0.7030
 3605SOL    HW210951   2.236   1.049   1.876  0.5037  1.0884  0.9142
 3606SOL     OW10952   2.333   0.283   1.144 -0.4065 -0.3562 -0.1478
 3606SOL    HW110953   2.408   0.273   1.204 -0.5530  1.7769  0.4897
 3606SOL    HW210954   2.259   0.248   1.193 -0.4231  0.8593  0.7586
 3607SOL     OW10955   4.243   3.865   0.097 -0.1757  0.5047 -0.2125
 3607SOL    HW110956   4.239   3.807   0.021 -0.7017  1.3656 -0.8669
 3607SOL    HW210957   4.333   3.899   0.096 -0.0746  0.2401 -0.2340
 3608SOL     OW10958   0.651   4.532   4.020 -0.4422  0.2967 -0.1338
 3608SOL    HW110959   0.720   4.466   4.014  0.7949  1.5217  0.0951
 3608SOL    HW210960   0.575   4.484   4.054  0.9872 -0.6134  1.9993
 3609SOL     OW10961   1.341   4.557   3.727  0.7655 -0.0646  0.0453
 3609SOL    HW110962   1.254   4.538   3.762  0.7742  1.3451  0.9196
 3609SOL    HW210963   1.401   4.503   3.779  0.5093 -0.2350  0.1621
 3610SOL     OW10964   0.250   1.989   4.554  0.0565 -0.6836 -0.1819
 3610SOL    HW110965   0.294   2.064   4.594  1.8356 -1.0952 -1.2277
 3610SOL    HW210966   0.231   2.018   4.464 -0.9681 -0.8548 -0.0312
 3611SOL     OW10967   3.127   1.589   1.273 -0.1127 -0.0403 -0.6464
 3611SOL    HW110968   3.035   1.566   1.289 -0.0067 -1.6368 -2.0623
 3611SOL    HW210969   3.123   1.677   1.233 -0.8441  0.7783  1.1364
 3612SOL     OW10970   3.955   1.078   1.504  0.3584 -0.0122 -0.5785
 3612SOL    HW110971   4.031   1.083   1.563  1.1508 -1.9058 -1.3611
 3612SOL    HW210972   3.885   1.040   1.558 -0.1547  1.8994  0.1962
 3613SOL     OW10973   0.431   1.779   4.381  0.1483  0.0357 -0.1596
 3613SOL    HW110974   0.361   1.835   4.416  0.7975  0.5755  0.3021
 3613SOL    HW210975   0.497   1.777   4.450  0.4606 -0.7241 -0.4642
 3614SOL     OW10976   4.521   1.274   3.668 -0.2927  0.0616  0.5216
 3614SOL    HW110977   4.600   1.237   3.627 -0.1086 -1.2462  1.9387
 3614SOL    HW210978   4.542   1.366   3.683  0.2639  0.1638 -0.7160
 3615SOL     OW10979   2.477   4.123   1.909 -0.0366 -0.7783  0.2716
 3615SOL    HW110980   2.570   4.105   1.917 -0.0416 -1.2577 -0.5870
 3615SOL    HW210981   2.458   4.112   1.816 -1.1995 -1.9436  0.6173
 3616SOL     OW10982   3.566   0.671   2.643  0.0670  0.0442 -0.3074
 3616SOL    HW110983   3.596   0.724   2.569 -0.6647  1.6634  0.4930
 3616SOL    HW210984   3.509   0.605   2.605  0.3166  0.3686 -1.2666
 3617SOL     OW10985   3.952   3.890   3.019 -0.1750 -0.2847 -0.3929
 3617SOL    HW110986   3.921   3.933   2.939  3.0765 -0.7693 -2.1025
 3617SOL    HW210987   3.873   3.871   3.069 -2.1192  3.6136 -1.5860
 3618SOL     OW10988   2.742   1.033   1.141  0.5792  0.0010 -0.0397
 3618SOL    HW110989   2.781   1.092   1.077 -1.1441  0.3776 -0.8181
 3618SOL    HW210990   2.705   1.090   1.208  1.9898 -0.3761  1.0955
 3619SOL     OW10991   0.051   1.912   1.910 -0.0771 -0.4903  0.6607
 3619SOL    HW110992   0.030   1.952   1.825 -0.4302  0.2793  1.1027
 3619SOL    HW210993  -0.033   1.909   1.956 -0.0381 -1.6519  0.6853
 3620SOL     OW10994   4.876   3.503   4.868 -0.1981  0.4438  0.2055
 3620SOL    HW110995   4.803   3.541   4.819 -0.2845  0.2301  0.1665
 3620SOL    HW210996   4.919   3.445   4.805 -1.2318 -1.0362  0.7969
 3621SOL     OW10997   0.682   1.223   1.131 -0.1118  0.3251 -0.1382
 3621SOL    HW110998   0.623   1.151   1.153  0.8306 -0.9502 -1.6219
 3621SOL    HW210999   0.642   1.266   1.056 -0.6947  1.4339  0.7672
 3622SOL     OW11000   0.824   1.842   4.493 -0.2008  0.0493  0.0115
 3622SOL    HW111001   0.795   1.772   4.434 -1.3064 -0.6082  1.2657
 3622SOL    HW211002   0.743   1.880   4.526  0.2626 -1.2254  2.9408
 3623SOL     OW11003   2.844   2.429   1.473 -0.6344 -0.7588  0.5559
 3623SOL    HW111004   2.858   2.421   1.378 -0.1490 -4.6656  0.7688
 3623SOL    HW211005   2.782   2.500   1.483 -0.9187 -0.4010 -2.7321
 3624SOL     OW11006   2.173   3.797   4.956  0.0307 -0.1236 -0.0062
 3624SOL    HW111007   2.136   3.859   4.892 -1.5311 -3.3444 -2.5022
 3624SOL    HW211008   2.138   3.827   5.040 -1.6336  1.6825 -1.2394
 3625SOL     OW11009   2.218   4.968   1.307  0.4445 -0.8173 -0.2347
 3625SOL    HW111010   2.221   5.062   1.289 -0.4193 -0.2649  2.1307
 3625SOL    HW211011   2.134   4.940   1.272  0.5331 -0.6433 -0.5988
 3626SOL     OW11012   3.513   3.784   4.736  0.5249 -0.4435 -0.2427
 3626SOL    HW111013   3.572   3.814   4.805 -1.3991  0.2445  1.1915
 3626SOL    HW211014   3.448   3.853   4.728 -2.6847 -2.9867  1.4790
 3627SOL     OW11015   2.153   0.130   0.451  0.1625 -0.0930  0.2505
 3627SOL    HW111016   2.219   0.067   0.481  0.5152  0.7370  1.3142
 3627SOL    HW211017   2.197   0.215   0.457  0.4153  0.1554 -3.1522
 3628SOL     OW11018   0.482   1.679   2.815  0.1288 -0.2313 -0.1783
 3628SOL    HW111019   0.518   1.709   2.732 -0.8329 -0.1555 -0.5820
 3628SOL    HW211020   0.487   1.754   2.873 -2.0813  0.7500 -1.1204
 3629SOL     OW11021   0.821   1.428   3.622 -0.2038 -0.0738  0.7556
 3629SOL    HW111022   0.791   1.387   3.704 -1.4210 -0.6726  0.0383
 3629SOL    HW211023   0.773   1.511   3.617  0.6046  0.4307  1.1117
 3630SOL     OW11024   3.325   3.703   4.949 -0.2340 -0.4568 -0.5779
 3630SOL    HW111025   3.337   3.726   4.856  0.4137  0.8685 -0.1874
 3630SOL    HW211026   3.409   3.667   4.976 -0.7641 -1.8994 -0.7674
 3631SOL     OW11027   4.531   1.960   1.452  0.3156 -0.3495 -0.0853
 3631SOL    HW111028   4.526   1.865   1.438  1.4794 -0.3154 -0.8721
 3631SOL    HW211029   4.489   1.997   1.374 -0.2327 -0.2128  0.2714
 3632SOL     OW11030   1.160   0.915   0.907  0.2174 -0.0262 -0.3346
 3632SOL    HW111031   1.203   0.916   0.822 -1.3758 -0.9451 -1.1937
 3632SOL    HW211032   1.226   0.949   0.968  0.9246  2.0547 -2.1328
 3633SOL     OW11033   4.306   3.902   2.301  0.6872  1.1001  0.2778
 3633SOL    HW111034   4.400   3.887   2.310  0.6335  1.0104  0.7254
 3633SOL    HW211035   4.268   3.815   2.293  0.8580  1.2060 -2.3386
 3634SOL     OW11036   3.320   3.235   4.439 -0.0015  0.6787 -0.3461
 3634SOL    HW111037   3.273   3.309   4.399  0.3395  1.3777  0.5189
 3634SOL    HW211038   3.409   3.242   4.406 -0.0594  0.4189 -0.5633
 3635SOL     OW11039   1.331   2.355   2.272  0.9607  0.9812 -0.0645
 3635SOL    HW111040   1.243   2.327   2.298  1.2345 -0.2120 -0.3849
 3635SOL    HW211041   1.316   2.423   2.206  0.2821  0.6379 -0.2746
 3636SOL     OW11042   4.306   2.365   3.667  0.4064 -0.2261 -0.1337
 3636SOL    HW111043   4.279   2.342   3.756  1.2147  1.2509  0.5354
 3636SOL    HW211044   4.296   2.284   3.617 -2.8894 -0.4303  0.5779
 3637SOL     OW11045   2.965   4.973   2.780 -0.0820 -0.0317  0.2740
 3637SOL    HW111046   2.884   4.951   2.824 -0.6135 -0.1066 -0.7069
 3637SOL    HW211047   2.972   4.909   2.709  0.9761 -0.1972  0.5152
 3638SOL     OW11048   2.843   2.245   1.658  0.3095  0.1132  0.2028
 3638SOL    HW111049   2.859   2.318   1.598 -0.6579  0.3521  0.2288
 3638SOL    HW211050   2.761   2.207   1.628 -1.0472  1.2119  2.3064
 3639SOL     OW11051   0.229   0.185   3.181  0.0222  0.1567 -0.3433
 3639SOL    HW111052   0.253   0.120   3.115 -1.1512  0.0915 -0.7276
 3639SOL    HW211053   0.271   0.266   3.151  1.8739 -0.4778  0.3809
 3640SOL     OW11054   1.534   2.126   1.255  0.0431  0.2166 -0.2005
 3640SOL    HW111055   1.606   2.091   1.307  0.3967  0.4147 -0.5610
 3640SOL    HW211056   1.575   2.182   1.190 -0.3773 -0.2561 -0.8820
 3641SOL     OW11057   1.773   3.522   4.767  0.4366 -0.7436 -0.4211
 3641SOL    HW111058   1.732   3.439   4.740 -0.3068  0.1689 -2.2685
 3641SOL    HW211059   1.743   3.585   4.702  1.8676  0.7653  0.3343
 3642SOL     OW11060   1.844   2.962   3.263  0.2015  0.2384 -0.4010
 3642SOL    HW111061   1.780   3.007   3.208  0.6699  2.1058  0.4836
 3642SOL    HW211062   1.921   2.953   3.207  1.2235  3.5268  0.2547
 3643SOL     OW11063   3.838   1.439   4.235 -0.4645  0.0626  0.3672
 3643SOL    HW111064   3.817   1.498   4.307  0.6858 -1.9743  2.5216
 3643SOL    HW211065   3.775   1.368   4.242  0.4655 -0.8086  0.2388
 3644SOL     OW11066   4.632   2.987   4.861  0.1688 -0.1754 -0.1651
 3644SOL    HW111067   4.607   3.012   4.772  1.2016 -0.7805 -0.6413
 3644SOL    HW211068   4.687   3.058   4.891  0.1375 -0.1571 -0.1503
 3645SOL     OW11069   4.100   4.662   2.480 -0.1722  0.3456  0.1266
 3645SOL    HW111070   4.059   4.616   2.553  0.0598 -2.9150 -1.6271
 3645SOL    HW211071   4.184   4.619   2.469 -0.1141  0.9164 -1.9395
 3646SOL     OW11072   0.569   2.871   1.816 -0.5424  0.4177  0.7166
 3646SOL    HW111073   0.502   2.936   1.837 -1.1843 -0.3354  1.0475
 3646SOL    HW211074   0.540   2.791   1.860  0.5885  0.0797  0.8767
 3647SOL     OW11075   0.141   0.774   1.748 -0.2899  0.0770  0.1876
 3647SOL    HW111076   0.099   0.845   1.797  0.1166  0.4728 -0.0308
 3647SOL    HW211077   0.141   0.804   1.657  1.1954  0.4588  0.2915
 3648SOL     OW11078   2.738   1.828   1.437 -0.3503  0.3244 -0.0490
 3648SOL    HW111079   2.702   1.852   1.523 -1.1555 -2.2574  0.4149
 3648SOL    HW211080   2.669   1.779   1.394  1.6134 -2.5725 -0.1762
 3649SOL     OW11081   1.223   0.099   1.246 -0.1851  0.1322 -0.5501
 3649SOL    HW111082   1.235   0.029   1.182 -1.0447 -1.5025  0.9961
 3649SOL    HW211083   1.130   0.095   1.269  0.3939 -0.4459  1.9827
 3650SOL     OW11084   3.705   1.216   4.434 -0.4024 -0.2898 -0.0700
 3650SOL    HW111085   3.645   1.283   4.466 -0.2952  0.1964 -0.8559
 3650SOL    HW211086   3.768   1.204   4.504 -1.0977 -0.4148  0.5431
 3651SOL     OW11087   3.107   1.290   1.772  0.0053 -0.0143 -0.4855
 3651SOL    HW111088   3.032   1.254   1.820  1.9584  0.2808  3.1141
 3651SOL    HW211089   3.133   1.219   1.713 -1.5415 -1.0743  0.0301
 3652SOL     OW11090   4.834   3.760   0.873 -0.1376  0.3961  0.3323
 3652SOL    HW111091   4.873   3.698   0.935 -3.2253 -1.1117  0.9988
 3652SOL    HW211092   4.885   3.750   0.793  1.9022 -0.0704  1.6196
 3653SOL     OW11093   4.043   1.336   2.211  0.6576  0.5800 -0.3512
 3653SOL    HW111094   4.026   1.287   2.131 -1.6529  2.6126 -1.2149
 3653SOL    HW211095   3.989   1.293   2.278  3.0926 -1.5379  0.4327
 3654SOL     OW11096   2.667   0.296   2.277  0.1484 -0.0764  0.9552
 3654SOL    HW111097   2.754   0.309   2.315 -0.2213 -1.0500  2.2370
 3654SOL    HW211098   2.624   0.236   2.339 -2.0735  1.8159  1.3582
 3655SOL     OW11099   1.759   1.642   3.044 -0.4767 -0.3738 -0.4554
 3655SOL    HW111100   1.830   1.599   2.996 -0.7424 -1.9915  0.5023
 3655SOL    HW211101   1.681   1.591   3.021 -0.9240 -0.0110  0.2208
 3656SOL     OW11102   3.790   1.503   1.553  0.9970  0.5177  0.1880
 3656SOL    HW111103   3.709   1.453   1.548  1.1357  0.3452 -0.4075
 3656SOL    HW211104   3.853   1.454   1.500  2.5188 -1.2204  3.2858
 3657SOL     OW11105   3.286   4.631   2.225 -0.9757 -0.4944  0.0731
 3657SOL    HW111106   3.359   4.596   2.276 -1.5677  0.2338  1.4378
 3657SOL    HW211107   3.324   4.646   2.138  1.8092  3.8307  1.6940
 3658SOL     OW11108   3.041   4.179   1.686 -0.0086  0.1472 -0.5376
 3658SOL    HW111109   3.034   4.275   1.683  2.2668  0.3497 -1.4444
 3658SOL    HW211110   3.040   4.159   1.780 -1.6056  0.8976 -0.3436
 3659SOL     OW11111   4.555   5.001   2.692 -0.4441 -0.4746  0.2035
 3659SOL    HW111112   4.514   5.087   2.681 -0.4217 -0.3646  0.9715
 3659SOL    HW211113   4.627   5.017   2.753  0.8333 -0.6404 -1.1900
 3660SOL     OW11114   0.606   3.030   0.801 -0.2053  0.7075  0.1319
 3660SOL    HW111115   0.601   2.966   0.730 -0.0907  1.3721 -0.4939
 3660SOL    HW211116   0.515   3.054   0.817 -0.1792  1.1524 -0.3566
 3661SOL     OW11117   3.037   1.104   3.940 -0.2819 -0.0298 -0.0826
 3661SOL    HW111118   3.095   1.029   3.926  1.5108  0.8312  2.1848
 3661SOL    HW211119   3.087   1.179   3.908  0.1131  0.7817  2.2635
 3662SOL     OW11120   1.773   4.353   1.337 -0.0532 -0.4867  0.5468
 3662SOL    HW111121   1.863   4.388   1.332 -0.2117 -0.2402 -1.6179
 3662SOL    HW211122   1.734   4.399   1.411  1.2135  0.3424  0.7431
 3663SOL     OW11123   2.878   1.698   2.647 -0.3082  0.1910  0.2902
 3663SOL    HW111124   2.901   1.710   2.739  1.3329  0.3565 -0.1034
 3663SOL    HW211125   2.945   1.638   2.613 -0.5140  0.6252 -0.9338
 3664SOL     OW11126   4.979   0.729   1.426  0.4585  0.4201  0.9957
 3664SOL    HW111127   4.914   0.766   1.486  0.7953  0.8285  1.1134
 3664SOL    HW211128   5.057   0.782   1.440  0.9276 -0.2837  1.0987
 3665SOL     OW11129   0.854   1.675   1.104  0.4482 -0.4067 -0.2871
 3665SOL    HW111130   0.863   1.670   1.009 -0.9436  0.4803 -0.5051
 3665SOL    HW211131   0.913   1.608   1.138  1.0015 -0.7034 -1.7696
 3666SOL     OW11132   3.392   3.388   0.256 -0.3733  0.2844 -0.1193
 3666SOL    HW111133   3.349   3.339   0.326 -0.3005 -0.2801 -0.4613
 3666SOL    HW211134   3.381   3.333   0.178  2.4055 -0.7344  0.0816
 3667SOL     OW11135   1.338   3.973   0.899  0.5472  0.2639  0.3922
 3667SOL    HW111136   1.269   3.957   0.833  1.1773  1.2766 -0.5518
 3667SOL    HW211137   1.414   4.001   0.847  0.8196  1.8900  1.5959
 3668SOL     OW11138   2.517   3.549   3.168  0.0417  0.8282  0.1181
 3668SOL    HW111139   2.499   3.479   3.106  0.1771  0.8915  0.0071
 3668SOL    HW211140   2.604   3.581   3.144 -0.1038  1.1690  0.0425
 3669SOL     OW11141   4.508   0.910   2.192 -0.7640 -0.0130  0.0926
 3669SOL    HW111142   4.595   0.879   2.217 -0.7506  0.7439  1.0252
 3669SOL    HW211143   4.481   0.851   2.122 -0.3834 -1.5633  1.2189
 3670SOL     OW11144   3.596   3.266   2.869 -0.0131  0.0090 -0.1009
 3670SOL    HW111145   3.654   3.249   2.795 -0.3517  2.5787 -1.0630
 3670SOL    HW211146   3.508   3.251   2.835 -0.0795 -1.1712  0.5386
 3671SOL     OW11147   3.928   1.610   0.592  0.0228 -0.6227  0.3226
 3671SOL    HW111148   3.841   1.570   0.589 -0.0409 -0.4497 -0.1639
 3671SOL    HW211149   3.911   1.704   0.586  0.2968 -0.6331 -0.7801
 3672SOL     OW11150   2.199   0.159   2.830  0.0171 -0.3364  0.5176
 3672SOL    HW111151   2.165   0.202   2.751 -1.0693  1.5300  1.9061
 3672SOL    HW211152   2.216   0.069   2.803 -0.1289  0.2890 -1.8787
 3673SOL     OW11153   0.630   1.062   1.327  0.3653 -0.0025 -0.3094
 3673SOL    HW111154   0.628   0.967   1.338 -1.2276 -0.0657 -0.9857
 3673SOL    HW211155   0.722   1.086   1.341  0.3472 -1.2810  2.7786
 3674SOL     OW11156   5.058   0.610   2.765  0.5085  0.3175  0.5879
 3674SOL    HW111157   5.084   0.558   2.841 -0.5949 -2.0078 -0.4971
 3674SOL    HW211158   4.962   0.608   2.767  0.4571  1.4858 -0.0588
 3675SOL     OW11159   0.264   0.685   3.899  0.1898 -0.3106  0.1153
 3675SOL    HW111160   0.211   0.608   3.918  0.6993 -1.0497 -1.3365
 3675SOL    HW211161   0.325   0.690   3.973 -1.4585  0.2354  1.5314
 3676SOL     OW11162   4.501   1.257   4.511  0.2318  0.0473 -0.0228
 3676SOL    HW111163   4.576   1.260   4.453  0.3629 -1.4329  0.0329
 3676SOL    HW211164   4.526   1.311   4.586  1.1988 -0.3245 -0.0665
 3677SOL     OW11165   3.487   2.828   4.336 -0.8207  0.4868  0.6215
 3677SOL    HW111166   3.444   2.793   4.414 -0.9499  0.6108  0.6065
 3677SOL    HW211167   3.438   2.790   4.263 -0.1435 -0.3402  0.5842
 3678SOL     OW11168   1.336   3.895   3.312 -0.1019  0.3537  0.4402
 3678SOL    HW111169   1.265   3.876   3.251 -0.8882  1.6249  0.9187
 3678SOL    HW211170   1.305   3.860   3.396  1.1420 -1.7428  0.0953
 3679SOL     OW11171   0.372   3.964   2.949 -0.2888  0.6132  0.1292
 3679SOL    HW111172   0.366   4.059   2.961  2.1520  1.0626 -1.3302
 3679SOL    HW211173   0.302   3.943   2.887 -0.8578  1.4585  0.4689
 3680SOL     OW11174   0.785   3.723   2.640 -0.7136  0.2183 -0.3778
 3680SOL    HW111175   0.712   3.714   2.578 -1.0559  0.7071 -0.0497
 3680SOL    HW211176   0.853   3.768   2.589 -0.9747  0.5739 -0.4118
 3681SOL     OW11177   2.693   0.878   3.634 -0.2149  0.0535 -0.2116
 3681SOL    HW111178   2.754   0.809   3.608  1.9212  1.8912 -0.3852
 3681SOL    HW211179   2.749   0.951   3.660 -2.3040  2.5322 -2.1041
 3682SOL     OW11180   0.835   4.153   0.036  0.6836  0.1151 -0.2941
 3682SOL    HW111181   0.794   4.216   0.096  0.4363 -0.3938  0.0933
 3682SOL    HW211182   0.868   4.084   0.094 -1.8626 -1.7133 -0.8435
 3683SOL     OW11183   0.199   2.164   3.999  0.1840 -0.2658  0.2299
 3683SOL    HW111184   0.287   2.180   3.966  0.5275 -2.7110 -0.2402
 3683SOL    HW211185   0.155   2.118   3.927 -1.5990  1.0811  0.3648
 3684SOL     OW11186   1.679   3.968   3.627 -0.1502  0.1377  0.3488
 3684SOL    HW111187   1.764   3.927   3.643 -0.5620 -1.8263 -1.8419
 3684SOL    HW211188   1.624   3.896   3.597 -1.8362  1.8215 -0.7938
 3685SOL     OW11189   3.871   2.435   1.569 -0.1945 -0.3302  0.2313
 3685SOL    HW111190   3.880   2.510   1.628 -0.6396  0.9461 -1.2448
 3685SOL    HW211191   3.907   2.466   1.486 -0.8278 -1.5930 -0.5391
 3686SOL     OW11192   3.550   3.475   5.000  0.8151  0.0100 -0.4392
 3686SOL    HW111193   3.557   3.414   5.074  1.5887 -1.1924 -1.4578
 3686SOL    HW211194   3.526   3.419   4.926 -0.0932  1.2169 -1.0873
 3687SOL     OW11195   3.594   0.819   0.087 -0.1067 -0.3454  0.0790
 3687SOL    HW111196   3.689   0.806   0.086 -0.2005 -1.3890  1.4507
 3687SOL    HW211197   3.559   0.737   0.123 -1.2987  1.0690  2.3915
 3688SOL     OW11198   0.838   1.022   1.862  0.0858  0.1590 -0.1674
 3688SOL    HW111199   0.899   1.017   1.936 -0.1990  2.3688  0.2920
 3688SOL    HW211200   0.752   1.032   1.903 -0.0118  2.0547 -0.7414
 3689SOL     OW11201   2.711   3.575   4.757  1.0939  0.8719  0.0795
 3689SOL    HW111202   2.642   3.584   4.823  1.6717  0.3503  0.7642
 3689SOL    HW211203   2.689   3.641   4.691 -1.5524 -0.9895 -1.0949
 3690SOL     OW11204   2.671   0.365   3.206  0.0825  0.4607 -0.2623
 3690SOL    HW111205   2.642   0.456   3.194  0.3987  0.4797 -0.9610
 3690SOL    HW211206   2.651   0.323   3.122  0.5630  0.0597 -0.1757
 3691SOL     OW11207   2.409   4.515   3.515 -0.3944  0.0723  0.5915
 3691SOL    HW111208   2.379   4.457   3.445 -0.9066  1.3367 -0.2833
 3691SOL    HW211209   2.502   4.496   3.525  0.0420  0.8197 -1.4491
 3692SOL     OW11210   3.214   1.599   2.285  0.1321 -0.0960 -0.1770
 3692SOL    HW111211   3.191   1.669   2.346 -1.4127  0.1125 -0.9509
 3692SOL    HW211212   3.218   1.641   2.200  1.3559 -0.5635 -0.3737
 3693SOL     OW11213   1.943   4.420   2.002  0.0191  0.0455 -0.0422
 3693SOL    HW111214   1.863   4.373   1.976 -0.4254  1.0061 -0.4425
 3693SOL    HW211215   2.007   4.350   2.016 -1.8827 -1.1361  4.3253
 3694SOL     OW11216   2.678   0.638   1.739  0.3875  0.8228 -0.4072
 3694SOL    HW111217   2.634   0.559   1.705  2.7690 -1.3815  1.3194
 3694SOL    HW211218   2.606   0.692   1.772 -1.3102 -0.7436 -1.3014
 3695SOL     OW11219   4.822   0.585   2.398 -0.0897  0.1327  0.1441
 3695SOL    HW111220   4.744   0.555   2.445 -1.1343  1.7996 -0.4377
 3695SOL    HW211221   4.891   0.525   2.427 -1.5573 -1.4034  0.6852
 3696SOL     OW11222   3.244   2.553   1.876  0.0406  0.2954 -0.0881
 3696SOL    HW111223   3.215   2.468   1.843  2.1557 -1.1363  1.4999
 3696SOL    HW211224   3.163   2.597   1.905 -0.9598 -1.8841  0.6188
 3697SOL     OW11225   2.921   0.511   3.392 -0.5199  0.1262  0.0989
 3697SOL    HW111226   2.936   0.439   3.332 -0.6921 -1.1056  1.4763
 3697SOL    HW211227   2.940   0.474   3.479 -0.4640  1.7790  0.8262
 3698SOL     OW11228   4.623   3.261   0.007 -0.2720  0.3339  0.1096
 3698SOL    HW111229   4.637   3.341   0.056 -0.8042  1.6826 -1.8112
 3698SOL    HW211230   4.707   3.243  -0.036 -1.2686  2.6661 -3.2470
 3699SOL     OW11231   4.371   1.153   3.853  0.4616  0.1173  0.9934
 3699SOL    HW111232   4.290   1.146   3.803  0.4355 -0.9218  1.1726
 3699SOL    HW211233   4.434   1.193   3.793 -0.1162  0.7350  0.7903
 3700SOL     OW11234   4.039   3.297   3.474 -0.6366 -0.2523  0.1234
 3700SOL    HW111235   4.129   3.269   3.493 -0.7907  0.2037  1.6456
 3700SOL    HW211236   3.986   3.218   3.482 -0.3881 -0.5221 -0.7765
 3701SOL     OW11237   0.528   0.157   3.098 -0.6138  0.5757 -0.3687
 3701SOL    HW111238   0.528   0.090   3.165  0.1366  3.1729  2.4503
 3701SOL    HW211239   0.615   0.151   3.058 -0.4218  0.1245  0.1093
 3702SOL     OW11240   1.247   4.102   4.086 -0.6425  0.0115  0.2442
 3702SOL    HW111241   1.336   4.131   4.108 -0.8519 -1.1539  3.0098
 3702SOL    HW211242   1.258   4.013   4.052 -0.8097 -1.0213  2.6718
 3703SOL     OW11243   0.461   0.164   1.269 -0.3794 -0.0634 -0.4241
 3703SOL    HW111244   0.383   0.116   1.296 -0.4738  0.7026  0.7747
 3703SOL    HW211245   0.532   0.126   1.323 -0.7715  2.2669  1.9316
 3704SOL     OW11246   1.998   0.989   2.894  0.2301  0.4758 -0.9160
 3704SOL    HW111247   2.050   1.024   2.821 -1.4437  1.2588 -1.7864
 3704SOL    HW211248   1.915   0.965   2.854  0.2628 -1.7600  0.2420
 3705SOL     OW11249   0.382   1.652   4.949 -0.4897  0.2118  0.5531
 3705SOL    HW111250   0.430   1.659   4.866 -0.4397 -2.0304  0.3462
 3705SOL    HW211251   0.449   1.631   5.014 -1.0928 -3.1643  0.2247
 3706SOL     OW11252   0.472   1.920   1.592  0.3655 -0.1495  0.3723
 3706SOL    HW111253   0.547   1.961   1.549  0.2084 -0.5024 -0.2427
 3706SOL    HW211254   0.476   1.828   1.566 -0.7653 -0.0114 -0.3696
 3707SOL     OW11255   0.399   4.896   3.269 -0.6722 -0.6407 -0.1003
 3707SOL    HW111256   0.350   4.911   3.350  0.0572 -0.5448  0.3286
 3707SOL    HW211257   0.483   4.940   3.283 -1.0962  0.7133 -1.5070
 3708SOL     OW11258   2.681   1.829   2.273 -0.0829 -0.4093  0.1449
 3708SOL    HW111259   2.635   1.745   2.275  0.6587 -0.8333 -0.2767
 3708SOL    HW211260   2.772   1.806   2.252 -0.1823  0.6183 -1.5862
 3709SOL     OW11261   4.601   1.723   4.577 -0.2675 -0.2623  0.5589
 3709SOL    HW111262   4.623   1.667   4.502  0.6765  0.5364  0.2185
 3709SOL    HW211263   4.675   1.712   4.636 -0.5258 -0.0836  0.9169
 3710SOL     OW11264   0.483   3.643   2.028 -0.3072  0.3354 -0.4310
 3710SOL    HW111265   0.508   3.714   2.086 -0.3680  0.0566 -0.0646
 3710SOL    HW211266   0.426   3.684   1.963 -0.5076  0.5776 -0.1017
 3711SOL     OW11267   0.950   1.883   2.741 -0.2069  0.1296 -0.3125
 3711SOL    HW111268   0.878   1.869   2.680 -1.8088  1.8227  1.0716
 3711SOL    HW211269   1.027   1.895   2.685 -1.0222 -1.3854 -1.8333
 3712SOL     OW11270   0.541   0.781   4.926 -0.7608 -0.1489 -0.2338
 3712SOL    HW111271   0.482   0.797   5.000  1.1816  1.7071  1.0167
 3712SOL    HW211272   0.604   0.853   4.930  0.6576 -1.1781 -2.4636
 3713SOL     OW11273   1.166   1.648   1.883  0.2612  0.6085  0.4681
 3713SOL    HW111274   1.176   1.638   1.789 -1.3823  0.4914  0.2705
 3713SOL    HW211275   1.143   1.740   1.895  0.1933  0.5604  0.7159
 3714SOL     OW11276   4.299   4.413   0.748 -1.0373  0.8520  1.0430
 3714SOL    HW111277   4.311   4.343   0.684  0.8301  0.5280  1.6847
 3714SOL    HW211278   4.293   4.493   0.695  0.7886  0.6326  0.4376
 3715SOL     OW11279   4.134   1.734   1.040 -0.3053 -0.2884 -0.5062
 3715SOL    HW111280   4.082   1.786   0.979 -1.5211 -0.1435  0.6104
 3715SOL    HW211281   4.077   1.661   1.063  0.7331 -1.1924 -0.7182
 3716SOL     OW11282   3.312   3.605   2.211 -0.1569 -0.1631 -0.4189
 3716SOL    HW111283   3.373   3.667   2.172 -0.2674  0.2717  0.0983
 3716SOL    HW211284   3.226   3.645   2.200 -0.2224 -0.1956 -0.0345
 3717SOL     OW11285   4.522   2.912   0.583 -0.3732 -0.3534  0.1434
 3717SOL    HW111286   4.452   2.920   0.519 -1.6276  1.3377  1.6121
 3717SOL    HW211287   4.491   2.845   0.644  0.9296 -2.1462 -1.0430
 3718SOL     OW11288   1.430   3.860   2.509 -0.2697  0.4486 -0.1008
 3718SOL    HW111289   1.523   3.880   2.520  0.3355 -1.8588 -0.5542
 3718SOL    HW211290   1.426   3.764   2.508 -2.7485  0.4793  0.6304
 3719SOL     OW11291   1.532   4.094   0.746 -0.1740  0.2750  0.1548
 3719SOL    HW111292   1.519   4.182   0.780 -2.3504 -0.2717  0.9093
 3719SOL    HW211293   1.527   4.104   0.651 -1.7948  0.8202  0.2714
 3720SOL     OW11294   2.057   1.869   2.080  0.2971  0.6678 -0.4614
 3720SOL    HW111295   1.999   1.793   2.081  1.0035 -0.1225 -4.4183
 3720SOL    HW211296   2.122   1.850   2.148 -0.5317 -1.3989 -0.1640
 3721SOL     OW11297   0.154   1.967   0.094 -0.4661 -0.4873 -0.4756
 3721SOL    HW111298   0.079   2.025   0.100 -0.5249 -0.4103 -1.6604
 3721SOL    HW211299   0.201   1.996   0.016  2.4178  1.3392  1.7343
 3722SOL     OW11300   1.542   3.738   1.514 -0.0819  0.0054  0.4863
 3722SOL    HW111301   1.559   3.645   1.506 -0.2352 -0.0763  1.0547
 3722SOL    HW211302   1.448   3.747   1.496 -0.1649 -0.0135  0.9056
 3723SOL     OW11303   0.312   4.502   3.251 -0.2902 -0.3824 -0.1580
 3723SOL    HW111304   0.308   4.517   3.346 -0.5664  0.7932 -0.3501
 3723SOL    HW211305   0.391   4.548   3.223 -0.1092 -0.8810 -0.4832
 3724SOL     OW11306   4.928   2.828   3.539 -0.0640  0.0952  0.3251
 3724SOL    HW111307   4.985   2.857   3.468 -0.3421 -2.1112 -0.8671
 3724SOL    HW211308   4.941   2.894   3.608 -1.5462  3.7185 -2.5107
 3725SOL     OW11309   4.475   0.269   3.532  0.1811  0.0179  0.2635
 3725SOL    HW111310   4.520   0.223   3.603  0.7532  0.9089  0.5012
 3725SOL    HW211311   4.395   0.219   3.518 -0.3362  0.2404  2.0883
 3726SOL     OW11312   3.536   4.646   0.086  0.1485  0.2477  0.2007
 3726SOL    HW111313   3.540   4.634   0.181  0.7601 -0.1606  0.1288
 3726SOL    HW211314   3.443   4.656   0.067 -0.2078 -1.7610  0.6086
 3727SOL     OW11315   0.880   4.939   2.438  0.1224  0.3802 -0.2637
 3727SOL    HW111316   0.903   4.876   2.506 -2.5915  0.4629  0.8526
 3727SOL    HW211317   0.785   4.938   2.435  0.0842  2.0518 -2.5287
 3728SOL     OW11318   0.263   4.984   1.312  0.0145  0.1468  0.3274
 3728SOL    HW111319   0.315   4.946   1.382  0.6731 -0.6015 -0.5546
 3728SOL    HW211320   0.173   4.959   1.333  0.0182  1.1589  1.6701
 3729SOL     OW11321   0.152   3.328   4.242 -0.0116 -0.1866 -0.0558
 3729SOL    HW111322   0.168   3.321   4.337 -2.5304  0.8531  0.5374
 3729SOL    HW211323   0.239   3.334   4.204  1.2693 -3.5177  1.8726
 3730SOL     OW11324   0.824   1.777   1.583  0.6301  0.5552  0.1775
 3730SOL    HW111325   0.808   1.785   1.488  0.3098  1.4638  0.2976
 3730SOL    HW211326   0.781   1.695   1.607  0.5773  0.3957 -0.4386
 3731SOL     OW11327   3.421   4.514   4.272 -0.5580 -0.0053  0.3254
 3731SOL    HW111328   3.495   4.574   4.274 -1.2121  0.8253  0.6140
 3731SOL    HW211329   3.395   4.510   4.180 -0.6737  0.3848  0.3368
 3732SOL     OW11330   0.239   4.127   0.270  0.0537 -0.5462  0.5518
 3732SOL    HW111331   0.155   4.110   0.313 -0.1886  0.4740  0.4982
 3732SOL    HW211332   0.221   4.110   0.177 -0.2172  0.1172  0.4819
 3733SOL     OW11333   4.511   1.982   0.282 -0.1546 -0.2533 -0.6490
 3733SOL    HW111334   4.456   1.966   0.358 -2.0151 -1.1296 -2.1061
 3733SOL    HW211335   4.600   1.989   0.318 -0.8409 -1.5761  1.4938
 3734SOL     OW11336   0.025   4.033   5.006  0.5030  0.2009  0.3784
 3734SOL    HW111337  -0.064   4.025   4.972 -0.4038  0.4744  2.4868
 3734SOL    HW211338   0.067   4.096   4.948 -0.5114 -0.2928 -0.9448
 3735SOL     OW11339   4.732   2.202   3.648 -0.1366  0.3595  0.2501
 3735SOL    HW111340   4.795   2.147   3.694  1.9904  0.6443 -2.1350
 3735SOL    HW211341   4.651   2.152   3.649  1.1001 -1.7481  0.2195
 3736SOL     OW11342   0.897   2.637   4.712 -0.1848  0.0532  0.3818
 3736SOL    HW111343   0.808   2.660   4.737  0.2139  0.7799  1.1935
 3736SOL    HW211344   0.887   2.570   4.644 -1.3365  0.0119  0.5798
 3737SOL     OW11345   0.182   3.367   4.963 -0.7101 -0.5743  0.0954
 3737SOL    HW111346   0.212   3.441   5.017  0.9733 -1.3717  0.3274
 3737SOL    HW211347   0.178   3.403   4.874 -0.8557  0.0375  0.3421
 3738SOL     OW11348   0.558   0.118   0.546  0.3039 -0.9332 -0.5763
 3738SOL    HW111349   0.628   0.093   0.606  0.9756 -1.4891 -1.5659
 3738SOL    HW211350   0.597   0.185   0.490  0.4320 -2.0186 -1.8459
 3739SOL     OW11351   4.341   0.401   2.438  0.4230  0.4681  0.2902
 3739SOL    HW111352   4.255   0.358   2.440  1.1508 -1.2223 -1.3033
 3739SOL    HW211353   4.323   0.489   2.405 -0.6493 -0.0250 -0.5093
 3740SOL     OW11354   4.861   4.234   4.103 -0.0237 -0.9869  0.1556
 3740SOL    HW111355   4.909   4.308   4.141  0.7952 -0.7596 -1.2326
 3740SOL    HW211356   4.781   4.228   4.155  0.4037  0.1696  0.9985
 3741SOL     OW11357   0.485   4.268   0.090 -0.9294  0.6397  0.0146
 3741SOL    HW111358   0.574   4.273   0.125 -0.4071  0.6964 -1.2731
 3741SOL    HW211359   0.431   4.313   0.155  0.0415  0.9826  0.6057
 3742SOL     OW11360   0.730   2.002   3.585 -0.3834  0.0428  0.1931
 3742SOL    HW111361   0.659   2.039   3.532 -1.6913 -0.2238  1.6771
 3742SOL    HW211362   0.799   1.983   3.522 -2.2988 -1.3927 -1.6474
 3743SOL     OW11363   3.721   5.031   4.364 -0.6290 -0.5238  0.5888
 3743SOL    HW111364   3.632   5.003   4.387 -0.8100  0.1589  0.7535
 3743SOL    HW211365   3.716   5.053   4.271 -0.8936  0.4614  0.8232
 3744SOL     OW11366   1.770   0.431   2.093  0.5395  0.2764 -0.3681
 3744SOL    HW111367   1.754   0.465   2.181  0.1740  0.1361 -0.3784
 3744SOL    HW211368   1.688   0.387   2.068  1.7509 -2.9093  0.6870
 3745SOL     OW11369   0.222   1.669   2.529  0.0174 -0.4002  0.1691
 3745SOL    HW111370   0.146   1.670   2.470  0.5025 -0.7226 -0.4825
 3745SOL    HW211371   0.292   1.633   2.475  1.2771  2.1467 -0.0531
 3746SOL     OW11372   3.960   3.871   1.863 -0.0883  0.2075 -0.2487
 3746SOL    HW111373   3.968   3.945   1.803  0.2689  1.5309  1.3534
 3746SOL    HW211374   3.963   3.910   1.950  0.1552 -1.7122  0.6644
 3747SOL     OW11375   0.397   4.696   0.434  0.2622 -0.4673 -0.1778
 3747SOL    HW111376   0.357   4.781   0.416  0.4186  0.1136  1.8937
 3747SOL    HW211377   0.324   4.635   0.438 -0.1806  0.1019  0.9801
 3748SOL     OW11378   3.871   2.120   0.470 -0.6305  0.4402  0.0126
 3748SOL    HW111379   3.858   2.169   0.389 -0.9959  1.4459  0.6543
 3748SOL    HW211380   3.844   2.181   0.539  0.6356 -0.0254  0.9539
 3749SOL     OW11381   3.169   2.554   3.961  0.2524  0.1546 -0.3113
 3749SOL    HW111382   3.108   2.501   4.013  0.4158  0.1860 -0.0874
 3749SOL    HW211383   3.228   2.491   3.921 -0.2602  0.0800 -0.9679
 3750SOL     OW11384   2.575   0.157   2.482  0.2751 -0.4304  0.0134
 3750SOL    HW111385   2.576   0.062   2.467  0.6430 -0.2614 -1.0393
 3750SOL    HW211386   2.482   0.178   2.492  0.0140 -0.5924 -1.8337
 3751SOL     OW11387   1.087   3.772   1.611 -0.1185  0.1325  0.8001
 3751SOL    HW111388   1.034   3.699   1.642 -0.1698 -0.9476 -1.5587
 3751SOL    HW211389   1.173   3.734   1.594  0.0116  0.7265  0.0518
 3752SOL     OW11390   0.032   4.255   3.090  0.2616 -0.0954  0.1043
 3752SOL    HW111391  -0.056   4.278   3.060  0.6640  0.2020 -0.8960
 3752SOL    HW211392   0.089   4.283   3.019  1.0046 -2.1378 -0.1559
 3753SOL     OW11393   4.271   4.078   0.893  0.0749 -0.0782 -0.1444
 3753SOL    HW111394   4.312   4.158   0.924 -0.9108  0.7425 -0.9182
 3753SOL    HW211395   4.180   4.101   0.877 -0.4084 -1.5444  0.3176
 3754SOL     OW11396   3.721   0.953   1.615 -0.2386 -0.1245 -0.2098
 3754SOL    HW111397   3.685   1.041   1.606  0.5915  0.2511  0.0183
 3754SOL    HW211398   3.675   0.901   1.549 -0.4769  0.5676 -0.6008
 3755SOL     OW11399   0.817   3.332   2.558 -0.7963  0.2299 -0.1898
 3755SOL    HW111400   0.865   3.413   2.567  0.3529 -0.6045  1.7261
 3755SOL    HW211401   0.754   3.332   2.630 -0.2333 -0.9141  0.3317
 3756SOL     OW11402   0.361   1.817   2.292 -0.2233 -0.2330 -0.1329
 3756SOL    HW111403   0.329   1.905   2.273  0.5552 -0.1505 -1.1453
 3756SOL    HW211404   0.304   1.759   2.241 -3.3173 -0.7237  3.5100
 3757SOL     OW11405   1.230   3.439   2.162 -0.0933  0.3843 -0.3675
 3757SOL    HW111406   1.207   3.424   2.071  0.3588 -0.7289 -0.3118
 3757SOL    HW211407   1.308   3.386   2.177  0.7829  1.7711  0.2517
 3758SOL     OW11408   1.820   3.545   1.523 -0.1570  0.1000 -0.6486
 3758SOL    HW111409   1.897   3.511   1.569 -0.4022 -0.7905 -0.8763
 3758SOL    HW211410   1.837   3.639   1.514  0.1764  0.1918  0.7021
 3759SOL     OW11411   3.310   3.422   0.675 -0.6900 -0.6980 -0.0275
 3759SOL    HW111412   3.334   3.482   0.746 -2.0193 -2.1290  1.7304
 3759SOL    HW211413   3.354   3.339   0.698 -0.1186 -0.8610 -1.5828
 3760SOL     OW11414   2.272   4.733   3.214 -0.4846 -0.9165 -0.4720
 3760SOL    HW111415   2.344   4.783   3.251 -1.7162  1.0670 -0.6279
 3760SOL    HW211416   2.275   4.752   3.120 -0.9582 -1.1496 -0.5372
 3761SOL     OW11417   4.853   0.015   4.612 -0.2492 -0.3957  0.2598
 3761SOL    HW111418   4.939  -0.013   4.580 -0.1147 -0.0726  0.3337
 3761SOL    HW211419   4.812   0.058   4.537 -0.1674 -0.1582  0.3486
 3762SOL     OW11420   2.539   4.362   3.251 -0.1382 -0.1053 -0.4704
 3762SOL    HW111421   2.463   4.392   3.202  0.9919  0.5786 -1.8833
 3762SOL    HW211422   2.550   4.427   3.320 -0.1591  0.4350 -0.9673
 3763SOL     OW11423   3.588   1.508   4.398  0.3125  0.0505  0.2772
 3763SOL    HW111424   3.508   1.476   4.440  0.7403 -0.0808  1.0243
 3763SOL    HW211425   3.627   1.566   4.464 -0.6008  2.4334 -1.1555
 3764SOL     OW11426   4.741   4.246   3.289  0.2286 -0.2584  0.4712
 3764SOL    HW111427   4.819   4.192   3.279  0.1982 -0.8323  2.8743
 3764SOL    HW211428   4.687   4.199   3.352 -0.9768  1.3272  0.6851
 3765SOL     OW11429   3.379   4.334   4.842 -0.0534 -0.0490  0.5957
 3765SOL    HW111430   3.407   4.333   4.750  0.5223  0.5119  0.7600
 3765SOL    HW211431   3.460   4.321   4.892  0.1771  2.9191  1.1265
 3766SOL     OW11432   1.044   3.945   3.866 -0.1081 -0.2627 -0.1392
 3766SOL    HW111433   1.065   3.854   3.888  0.1282  0.3103  2.3542
 3766SOL    HW211434   1.067   3.994   3.945  0.2159  2.0495 -1.5808
 3767SOL     OW11435   1.573   1.551   0.751 -0.3570 -0.0249 -0.2093
 3767SOL    HW111436   1.595   1.616   0.818 -1.8786  0.2098  0.0910
 3767SOL    HW211437   1.645   1.488   0.755  0.7115  1.1893  0.0739
 3768SOL     OW11438   1.320   3.239   0.000 -0.5187  0.0796 -0.1450
 3768SOL    HW111439   1.288   3.323  -0.032 -1.3482 -0.5476 -1.0066
 3768SOL    HW211440   1.242   3.194   0.033  0.0908  0.1171  1.4514
 3769SOL     OW11441   1.825   1.066   0.882 -0.1432 -0.4228  0.2830
 3769SOL    HW111442   1.752   1.119   0.915  0.9926 -0.1938  2.5841
 3769SOL    HW211443   1.886   1.059   0.955  1.8012 -1.2993 -1.3060
 3770SOL     OW11444   4.097   2.699   3.178 -0.2728 -0.1293 -0.0008
 3770SOL    HW111445   4.052   2.750   3.111 -0.6084 -1.6786 -0.9995
 3770SOL    HW211446   4.186   2.689   3.145 -0.6433 -1.5648 -0.6536
 3771SOL     OW11447   2.486   0.339   3.421  0.8297 -0.7721  0.2819
 3771SOL    HW111448   2.479   0.243   3.424 -1.0738 -0.7125 -0.3609
 3771SOL    HW211449   2.547   0.356   3.349  1.5809 -1.4945  0.7326
 3772SOL     OW11450   1.278   0.308   2.935 -0.3512 -0.3223 -0.6421
 3772SOL    HW111451   1.247   0.318   2.845  0.1323 -1.0863 -0.9099
 3772SOL    HW211452   1.357   0.255   2.926  0.5231  0.8031  0.0964
 3773SOL     OW11453   4.809   4.419   0.764  0.1542  0.2752  0.1983
 3773SOL    HW111454   4.736   4.424   0.701  1.4722  2.4945 -1.2694
 3773SOL    HW211455   4.791   4.340   0.814 -2.4448 -0.0964 -1.1350
 3774SOL     OW11456   3.026   2.253   0.198 -0.7140 -0.2330  0.4402
 3774SOL    HW111457   3.005   2.274   0.289  0.1234  1.3338  0.2891
 3774SOL    HW211458   3.041   2.337   0.156  1.5012 -1.0273 -0.5146
 3775SOL     OW11459   0.756   3.260   0.403  0.7704 -0.8630 -0.0570
 3775SOL    HW111460   0.730   3.290   0.490  1.5652 -0.1622 -0.0456
 3775SOL    HW211461   0.812   3.330   0.369 -0.3533 -0.6300 -1.5589
 3776SOL     OW11462   2.803   0.261   0.744  0.4881  0.7822 -0.2390
 3776SOL    HW111463   2.775   0.314   0.818  1.0027  1.3481 -0.4449
 3776SOL    HW211464   2.800   0.321   0.669 -1.6278 -0.1888 -1.0094
 3777SOL     OW11465   3.505   1.556   2.682 -0.1628 -0.6419 -0.1829
 3777SOL    HW111466   3.601   1.555   2.687 -0.1554  0.6639  0.5809
 3777SOL    HW211467   3.486   1.611   2.606 -0.3189 -1.5304 -0.7986
 3778SOL     OW11468   2.022   1.319   4.548  0.2170 -0.0909 -0.1326
 3778SOL    HW111469   1.970   1.336   4.470 -2.5280 -2.1973  1.1052
 3778SOL    HW211470   2.112   1.341   4.521 -1.0918  3.3458 -2.4909
 3779SOL     OW11471   0.874   4.773   1.654  0.1846 -0.6289 -0.4297
 3779SOL    HW111472   0.844   4.735   1.737  0.3772 -2.0693 -0.9860
 3779SOL    HW211473   0.953   4.724   1.633  0.3077 -0.0635 -1.3104
 3780SOL     OW11474   2.730   2.200   2.875 -0.3453  0.1618 -0.2453
 3780SOL    HW111475   2.697   2.267   2.935  2.8190  0.0993  1.8057
 3780SOL    HW211476   2.720   2.118   2.923  0.7533 -0.0907 -0.4116
 3781SOL     OW11477   4.115   2.528   4.968  0.1447  0.2820 -0.9071
 3781SOL    HW111478   4.059   2.577   4.909 -1.8037 -1.2472 -0.4354
 3781SOL    HW211479   4.165   2.595   5.015 -0.7480  1.6650 -1.8477
 3782SOL     OW11480   5.014   1.244   1.096  0.3833 -0.1471 -0.0077
 3782SOL    HW111481   5.007   1.284   1.183  0.2308  2.2981 -1.0404
 3782SOL    HW211482   4.931   1.197   1.085 -1.1596  2.3282 -0.0320
 3783SOL     OW11483   3.675   4.216   4.685 -0.3765 -0.1004 -0.6235
 3783SOL    HW111484   3.660   4.309   4.699 -0.7151 -0.4446  1.7290
 3783SOL    HW211485   3.721   4.187   4.764 -0.2650 -1.9354 -1.3038
 3784SOL     OW11486   3.544   3.187   2.260  0.4071 -0.0272  0.2119
 3784SOL    HW111487   3.516   3.106   2.304  2.0728 -0.4047  0.6520
 3784SOL    HW211488   3.610   3.224   2.318  1.4490  0.3450 -1.1652
 3785SOL     OW11489   4.204   2.051   2.348 -0.0288  0.2579 -0.9495
 3785SOL    HW111490   4.226   2.081   2.437 -0.7197 -0.2014 -0.6213
 3785SOL    HW211491   4.140   2.115   2.317 -0.9926 -0.4559 -0.5024
 3786SOL     OW11492   3.663   1.461   4.770 -0.3557 -0.7399 -0.2574
 3786SOL    HW111493   3.739   1.425   4.726  0.2384 -0.4328  0.4988
 3786SOL    HW211494   3.689   1.468   4.862 -0.7093  0.8624 -0.2387
 3787SOL     OW11495   1.469   2.438   1.229 -0.2198 -0.2922  0.4966
 3787SOL    HW111496   1.456   2.406   1.139 -1.1758  4.5941 -1.4215
 3787SOL    HW211497   1.390   2.411   1.276 -0.6947 -1.1842 -0.7494
 3788SOL     OW11498   2.051   4.877   0.145 -0.3426 -0.1273  0.5354
 3788SOL    HW111499   2.134   4.866   0.192 -1.0687  0.7096  2.0906
 3788SOL    HW211500   2.076   4.879   0.053  1.4407  0.6976  0.9898
 3789SOL     OW11501   4.572   2.518   1.017 -0.6452  0.1800  0.1745
 3789SOL    HW111502   4.578   2.481   1.106 -0.5410 -0.5868 -0.1410
 3789SOL    HW211503   4.644   2.580   1.012 -0.2674 -0.2354  0.4185
 3790SOL     OW11504   0.533   2.255   2.821  0.0458  0.9978 -0.4583
 3790SOL    HW111505   0.553   2.166   2.850  1.0545  0.9391 -1.2825
 3790SOL    HW211506   0.498   2.298   2.899 -2.5933 -0.7369 -0.5759
 3791SOL     OW11507   1.726   3.894   1.398 -0.6106 -0.5464  0.3775
 3791SOL    HW111508   1.670   3.844   1.458 -1.4607 -0.1894 -0.0996
 3791SOL    HW211509   1.693   3.873   1.311  1.1921 -1.7599 -0.0648
 3792SOL     OW11510   1.492   2.722   3.709 -0.0642 -0.5275 -0.4043
 3792SOL    HW111511   1.418   2.748   3.654 -1.0670 -2.2527  0.0401
 3792SOL    HW211512   1.463   2.640   3.749  0.7436  0.4754  2.4369
 3793SOL     OW11513   2.922   4.524   4.747 -0.0940  0.2118  0.6358
 3793SOL    HW111514   2.967   4.585   4.806  0.1645  0.1521  0.5022
 3793SOL    HW211515   2.901   4.449   4.802  0.1054  0.1754  0.6635
 3794SOL     OW11516   1.991   2.455   5.009 -0.1535  0.4662  0.4407
 3794SOL    HW111517   2.058   2.473   5.075 -1.5408  1.5193  1.6103
 3794SOL    HW211518   2.041   2.424   4.933  1.6639  1.2478  1.2503
 3795SOL     OW11519   0.007   1.919   0.936  0.0835 -0.2051 -0.1348
 3795SOL    HW111520   0.005   1.911   1.031  0.7343 -0.4030 -0.1387
 3795SOL    HW211521   0.061   1.996   0.919  1.1695 -0.9947 -0.3802
 3796SOL     OW11522   0.851   1.931   4.801 -0.0521 -0.0502 -0.2414
 3796SOL    HW111523   0.869   1.843   4.768  0.5903 -0.8088  1.9949
 3796SOL    HW211524   0.815   1.917   4.889  0.1547  1.9323  0.2029
 3797SOL     OW11525   1.959   1.033   4.216  0.1622  0.2338 -0.4829
 3797SOL    HW111526   1.886   0.971   4.219  0.1367  0.2774  0.0111
 3797SOL    HW211527   1.937   1.099   4.282 -0.2172  1.2352 -1.5768
 3798SOL     OW11528   4.994   0.893   2.800  0.4109  1.0928  0.4727
 3798SOL    HW111529   4.993   0.853   2.713 -0.0427  1.2244  0.4157
 3798SOL    HW211530   4.975   0.821   2.860  0.5664  1.0323  0.4484
 3799SOL     OW11531   2.770   0.100   3.521 -0.0144  0.4155  0.0189
 3799SOL    HW111532   2.841   0.084   3.459  1.1929  0.9249  1.2144
 3799SOL    HW211533   2.690   0.095   3.469  1.0521  3.5295 -2.1968
 3800SOL     OW11534   4.394   0.960   1.721  0.3266 -0.1593 -0.3972
 3800SOL    HW111535   4.384   0.908   1.641  1.1135  1.0710 -1.3232
 3800SOL    HW211536   4.421   0.896   1.787 -0.3740 -1.2085 -1.0774
 3801SOL     OW11537   4.074   5.038   1.239  0.0203  0.0735 -0.0768
 3801SOL    HW111538   4.077   5.035   1.335 -0.3142  0.8815 -0.0306
 3801SOL    HW211539   4.022   4.962   1.214  2.1762 -1.6085  0.2270
 3802SOL     OW11540   4.097   3.785   4.470 -0.5099  0.1928 -0.3680
 3802SOL    HW111541   4.039   3.771   4.394  1.3897 -0.2015 -1.8294
 3802SOL    HW211542   4.064   3.865   4.511 -0.8747  1.1190 -2.3389
 3803SOL     OW11543   0.322   0.036   2.946  0.3088 -0.1135 -0.3112
 3803SOL    HW111544   0.309   0.079   2.861  1.2618  1.5479  0.3240
 3803SOL    HW211545   0.396   0.083   2.985  1.5730 -2.5107  0.3861
 3804SOL     OW11546   4.568   0.547   4.753  0.4010  0.0195  0.1067
 3804SOL    HW111547   4.550   0.607   4.680 -0.8497  0.8352  1.0372
 3804SOL    HW211548   4.535   0.463   4.723  0.0409  0.3176 -0.3553
 3805SOL     OW11549   2.845   1.912   2.488 -0.4986 -0.1197  0.0978
 3805SOL    HW111550   2.838   1.846   2.557 -0.0288  0.3566  0.6094
 3805SOL    HW211551   2.774   1.891   2.428 -0.6431 -0.8104  0.4950
 3806SOL     OW11552   4.997   3.711   4.939  0.1290  0.4728 -0.3153
 3806SOL    HW111553   5.023   3.687   5.027  1.9809  0.1973 -0.8936
 3806SOL    HW211554   4.956   3.632   4.903 -1.0879  0.7342  0.4151
 3807SOL     OW11555   3.334   3.343   2.326  0.3215  0.4014 -0.0284
 3807SOL    HW111556   3.320   3.431   2.289  1.5715  1.3740  1.7161
 3807SOL    HW211557   3.404   3.306   2.272 -2.4329 -1.0044 -3.0184
 3808SOL     OW11558   2.037   2.368   0.666 -0.2966  0.0515 -0.2458
 3808SOL    HW111559   2.127   2.399   0.674  0.1365 -1.0914 -0.4743
 3808SOL    HW211560   2.036   2.287   0.717 -1.5495  0.7144  0.8431
 3809SOL     OW11561   2.195   4.755   0.620 -0.2188  0.2218 -0.0598
 3809SOL    HW111562   2.112   4.778   0.663 -0.9136 -1.0939 -0.6411
 3809SOL    HW211563   2.170   4.697   0.548  0.9509  1.9369 -1.9878
 3810SOL     OW11564   1.610   2.497   1.585  0.4664 -0.2911 -0.5850
 3810SOL    HW111565   1.703   2.490   1.561  1.8398 -0.3843  3.8438
 3810SOL    HW211566   1.564   2.445   1.519  3.3584  0.4724 -3.4900
 3811SOL     OW11567   3.168   2.306   0.817 -0.2282  0.4165  0.1320
 3811SOL    HW111568   3.220   2.385   0.804 -0.4305  0.5130 -0.0858
 3811SOL    HW211569   3.151   2.273   0.728 -2.5506  1.6802  0.0276
 3812SOL     OW11570   4.826   3.704   1.860  0.6509 -0.4223  0.1712
 3812SOL    HW111571   4.733   3.719   1.874  0.6967 -1.6938  2.2590
 3812SOL    HW211572   4.842   3.733   1.770 -1.9664 -1.1462 -0.6121
 3813SOL     OW11573   2.608   0.055   4.151  0.5509 -0.3706 -0.3637
 3813SOL    HW111574   2.643  -0.018   4.202  0.2623 -0.8366 -0.8347
 3813SOL    HW211575   2.551   0.015   4.086  0.7422  0.2361 -0.9208
 3814SOL     OW11576   2.196   4.072   0.075  0.0669 -0.1020 -0.0510
 3814SOL    HW111577   2.131   4.122   0.025 -0.5894 -0.6760  0.2208
 3814SOL    HW211578   2.150   3.994   0.104  1.0347 -0.8044 -0.3311
 3815SOL     OW11579   3.657   2.450   0.447  0.0662  0.5294 -0.0379
 3815SOL    HW111580   3.676   2.543   0.440 -1.2187  0.7362 -1.1702
 3815SOL    HW211581   3.565   2.446   0.475 -0.8615 -0.3293 -2.9084
 3816SOL     OW11582   0.410   3.330   2.444 -0.0463  0.0982  0.2060
 3816SOL    HW111583   0.408   3.405   2.384 -0.0340 -0.6079 -0.7086
 3816SOL    HW211584   0.488   3.344   2.498 -0.6633  1.3055  0.8144
 3817SOL     OW11585   3.476   0.635   3.683  0.1388  0.0019  0.4335
 3817SOL    HW111586   3.543   0.661   3.620 -1.2164  0.3853 -0.9175
 3817SOL    HW211587   3.487   0.540   3.691  0.6840  0.0217  0.0390
 3818SOL     OW11588   3.201   2.578   2.349 -0.2879  0.9294 -0.5114
 3818SOL    HW111589   3.189   2.509   2.414  2.8728 -1.4036 -2.1351
 3818SOL    HW211590   3.141   2.555   2.278  0.5940 -0.1077 -0.9505
 3819SOL     OW11591   2.716   0.775   1.252  0.3106 -0.8942 -0.5417
 3819SOL    HW111592   2.725   0.840   1.322  2.0447 -0.3064 -1.2411
 3819SOL    HW211593   2.730   0.824   1.172 -2.4014 -1.4124 -1.4290
 3820SOL     OW11594   4.493   0.505   1.747  0.2858  0.6133 -0.3449
 3820SOL    HW111595   4.511   0.527   1.655  0.6363 -1.5463 -0.8427
 3820SOL    HW211596   4.425   0.438   1.742  3.9804 -3.7415  0.4751
 3821SOL     OW11597   2.665   1.013   2.961  0.0794  0.3420 -0.1813
 3821SOL    HW111598   2.756   1.022   2.990  0.8033  1.0338 -2.4527
 3821SOL    HW211599   2.663   0.930   2.913 -0.6740  0.0011  0.4191
 3822SOL     OW11600   3.731   3.845   1.274 -0.3717 -0.0939  0.2734
 3822SOL    HW111601   3.732   3.877   1.364 -0.1403  2.6039 -0.5869
 3822SOL    HW211602   3.659   3.782   1.271 -2.8021  2.4064  1.5735
 3823SOL     OW11603   4.568   0.414   3.322 -0.2030  0.1056 -0.7988
 3823SOL    HW111604   4.490   0.464   3.300 -0.0601  0.2847 -0.9059
 3823SOL    HW211605   4.542   0.357   3.394 -1.2878 -1.9919 -2.7297
 3824SOL     OW11606   0.354   1.814   1.980  0.4068  0.0400 -0.5805
 3824SOL    HW111607   0.350   1.877   2.052 -0.6985  0.7084 -1.2060
 3824SOL    HW211608   0.269   1.770   1.982  0.8812 -0.9179 -0.6287
 3825SOL     OW11609   0.144   3.759   0.996 -0.4561 -0.3504 -0.0126
 3825SOL    HW111610   0.140   3.664   0.984 -1.0936 -0.4448  0.8135
 3825SOL    HW211611   0.234   3.777   1.021  0.4141 -0.3763 -2.8019
 3826SOL     OW11612   1.878   4.371   3.098  0.4383 -0.1765  0.3633
 3826SOL    HW111613   1.828   4.435   3.047  0.1891 -0.4665  0.2377
 3826SOL    HW211614   1.913   4.421   3.172  1.5892  0.4636 -0.5764
 3827SOL     OW11615   2.508   0.846   1.713  0.4017 -0.1025 -0.7646
 3827SOL    HW111616   2.557   0.914   1.667 -0.1031  0.2353 -0.8052
 3827SOL    HW211617   2.437   0.892   1.758  0.4075 -0.5259 -0.2999
 3828SOL     OW11618   4.438   3.787   1.875 -0.3365  0.8356 -0.6429
 3828SOL    HW111619   4.355   3.780   1.921 -1.0106  0.4516 -1.8714
 3828SOL    HW211620   4.486   3.708   1.900  0.9206  2.4178  2.3651
 3829SOL     OW11621   0.873   1.289   3.002  0.9952 -0.0169 -0.5237
 3829SOL    HW111622   0.818   1.362   3.029 -0.5041 -0.9114 -1.0485
 3829SOL    HW211623   0.917   1.261   3.082  0.5515  0.6054 -0.0596
 3830SOL     OW11624   1.256   1.208   0.728 -0.1632  0.2271 -0.5461
 3830SOL    HW111625   1.277   1.117   0.706  0.1197 -0.2410  1.4803
 3830SOL    HW211626   1.315   1.260   0.674  2.0405 -0.9091  0.6080
 3831SOL     OW11627   0.305   5.006   2.295 -0.3292 -0.5310 -0.4345
 3831SOL    HW111628   0.212   5.030   2.301 -0.3134 -0.7509  1.0938
 3831SOL    HW211629   0.350   5.074   2.345  0.4717  0.1409 -2.0122
 3832SOL     OW11630   3.793   1.273   1.816  0.3520  0.5206  0.4172
 3832SOL    HW111631   3.749   1.336   1.873  0.2910  0.7121  0.1629
 3832SOL    HW211632   3.722   1.235   1.763  0.7002  2.3756 -1.5077
 3833SOL     OW11633   3.327   2.401   3.807 -0.6391 -0.0256 -0.0336
 3833SOL    HW111634   3.414   2.361   3.808 -0.7484 -0.2781  1.5220
 3833SOL    HW211635   3.333   2.468   3.739  0.6746 -0.2527 -0.1756
 3834SOL     OW11636   2.122   3.378   2.798  0.0764  0.4105 -0.3699
 3834SOL    HW111637   2.105   3.456   2.850 -2.6920  0.3540 -1.0271
 3834SOL    HW211638   2.056   3.381   2.728  1.1908 -1.4897 -1.5907
 3835SOL     OW11639   3.596   0.490   1.148  0.6397  0.7990  0.3502
 3835SOL    HW111640   3.530   0.521   1.086  1.3018  3.8069  0.9767
 3835SOL    HW211641   3.554   0.496   1.234  0.9120  0.2655  0.5271
 3836SOL     OW11642   0.919   2.163   2.007 -0.2381 -0.3412 -0.6805
 3836SOL    HW111643   0.900   2.090   1.949 -1.2975  0.0437 -0.8382
 3836SOL    HW211644   1.010   2.149   2.034  0.8368  0.2378 -3.5672
 3837SOL     OW11645   0.808   4.625   1.883 -0.5577 -0.4588 -0.2294
 3837SOL    HW111646   0.868   4.657   1.950 -1.9348  1.9535 -0.0042
 3837SOL    HW211647   0.729   4.599   1.931  0.4753 -4.6301 -0.3961
 3838SOL     OW11648   4.315   3.591   4.088  0.5233  0.0054 -0.4301
 3838SOL    HW111649   4.409   3.580   4.102  0.8834  3.4367  0.6050
 3838SOL    HW211650   4.307   3.661   4.024 -1.3216 -0.0860 -0.3582
 3839SOL     OW11651   0.640   1.120   4.262 -0.2217  0.2825 -0.4768
 3839SOL    HW111652   0.614   1.123   4.354  0.3372  0.3866 -0.3195
 3839SOL    HW211653   0.629   1.029   4.237  1.5202 -0.1633  0.2617
 3840SOL     OW11654   3.901   4.181   2.412 -0.1271  0.1760 -0.0809
 3840SOL    HW111655   3.878   4.094   2.443  0.3328  0.2423  0.4534
 3840SOL    HW211656   3.979   4.167   2.358  0.8061  0.4343  1.1746
 3841SOL     OW11657   3.678   1.511   0.521 -0.3276 -0.3554 -0.0481
 3841SOL    HW111658   3.658   1.451   0.449 -1.6879  0.6169 -0.5317
 3841SOL    HW211659   3.628   1.590   0.500  0.8643  0.7015  0.9208
 3842SOL     OW11660   4.723   2.470   1.866 -0.4665 -0.1983  0.2182
 3842SOL    HW111661   4.743   2.483   1.959 -1.4899  2.7247  0.1457
 3842SOL    HW211662   4.807   2.446   1.827  0.0606 -1.1007  1.8287
 3843SOL     OW11663   1.060   1.097   3.862 -0.4119 -0.3106 -0.3018
 3843SOL    HW111664   0.982   1.124   3.910 -0.7929  1.9736 -2.0562
 3843SOL    HW211665   1.113   1.176   3.856 -0.0575 -0.6569 -2.9953
 3844SOL     OW11666   3.105   1.555   1.838  0.1718  0.1386 -0.1092
 3844SOL    HW111667   3.097   1.601   1.755  1.3595  0.7972  0.1206
 3844SOL    HW211668   3.107   1.462   1.815 -0.8891  0.2458 -0.6850
 3845SOL     OW11669   1.329   1.921   2.677 -0.3414 -0.0320 -0.2954
 3845SOL    HW111670   1.365   1.995   2.629  0.7509 -0.1058  0.3656
 3845SOL    HW211671   1.267   1.881   2.617  1.1218 -0.2476 -1.7435
 3846SOL     OW11672   1.658   1.371   1.683 -0.5916 -0.3628  0.5179
 3846SOL    HW111673   1.687   1.390   1.593 -1.5451 -0.9828  0.0606
 3846SOL    HW211674   1.585   1.430   1.698 -1.1002 -0.9686  0.4938
 3847SOL     OW11675   4.332   1.121   4.872 -0.5086  0.3285 -0.1509
 3847SOL    HW111676   4.400   1.066   4.833  0.0621  1.5138 -0.8484
 3847SOL    HW211677   4.307   1.182   4.803  0.5312  2.4967  1.3005
 3848SOL     OW11678   2.271   3.766   2.622 -0.2472  0.2689 -1.1213
 3848SOL    HW111679   2.300   3.844   2.669 -0.6878 -0.6616  0.7604
 3848SOL    HW211680   2.191   3.794   2.578  2.6219  2.6324 -5.6863
 3849SOL     OW11681   1.505   0.117   3.767  0.1571  0.1920  0.4246
 3849SOL    HW111682   1.583   0.106   3.713 -0.0968  0.4276  0.0018
 3849SOL    HW211683   1.482   0.209   3.757 -0.8884 -0.1370 -0.4518
 3850SOL     OW11684   1.869   1.550   2.644 -0.0623  0.2732 -0.3190
 3850SOL    HW111685   1.911   1.516   2.723 -0.2743 -0.8614 -0.6727
 3850SOL    HW211686   1.879   1.645   2.651  2.1142  0.0933 -0.1362
 3851SOL     OW11687   3.448   3.383   3.331  0.0533 -0.3949 -0.2957
 3851SOL    HW111688   3.470   3.341   3.247 -0.5713  0.5304 -0.9419
 3851SOL    HW211689   3.440   3.310   3.393  0.7038 -1.0806 -0.9944
 3852SOL     OW11690   3.552   0.872   0.685  0.2520 -0.6353 -0.0696
 3852SOL    HW111691   3.466   0.867   0.643  0.5347  0.0860 -0.7613
 3852SOL    HW211692   3.568   0.783   0.718 -0.7066 -0.8005 -0.0226
 3853SOL     OW11693   3.720   2.611   4.605 -0.7329 -0.4929  0.2167
 3853SOL    HW111694   3.667   2.555   4.661 -1.2758 -0.9073 -0.6803
 3853SOL    HW211695   3.709   2.574   4.517  0.2974 -0.0179 -0.1283
 3854SOL     OW11696   0.491   4.758   4.188 -0.3636 -0.0063  0.2920
 3854SOL    HW111697   0.578   4.718   4.189 -0.2400  0.2214  1.9280
 3854SOL    HW211698   0.431   4.685   4.172  0.0779 -0.2864 -0.0905
 3855SOL     OW11699   0.659   4.428   0.506  0.7034 -0.5155 -0.1343
 3855SOL    HW111700   0.699   4.449   0.590  1.6915 -2.3112 -0.1077
 3855SOL    HW211701   0.588   4.367   0.528 -1.8910  2.1967 -0.2374
 3856SOL     OW11702   4.904   2.754   1.555 -0.1898  0.0161  0.3424
 3856SOL    HW111703   4.979   2.708   1.517  0.2838 -1.3710  2.7248
 3856SOL    HW211704   4.943   2.832   1.596 -0.6217  1.2211 -1.4233
 3857SOL     OW11705   2.323   3.276   2.002  0.2991  0.0571  0.2329
 3857SOL    HW111706   2.388   3.227   1.953  0.8096 -0.9797  1.8672
 3857SOL    HW211707   2.249   3.216   2.012 -1.0274  1.2428 -1.6720
 3858SOL     OW11708   2.522   3.031   3.048 -0.6751 -0.2842 -0.0995
 3858SOL    HW111709   2.486   3.014   3.135  0.0478  1.2554  0.5301
 3858SOL    HW211710   2.477   3.109   3.017 -2.6019 -2.0642 -2.1536
 3859SOL     OW11711   3.581   0.661   0.462  0.0303 -0.2727  0.8316
 3859SOL    HW111712   3.646   0.614   0.515  1.5847  2.3506  1.4407
 3859SOL    HW211713   3.604   0.639   0.372  2.3336  1.1633  0.9970
 3860SOL     OW11714   5.037   4.991   1.340  0.0005  0.3052 -0.4022
 3860SOL    HW111715   5.006   5.057   1.402  0.2809  0.5818 -0.5522
 3860SOL    HW211716   5.038   5.037   1.256 -0.0083  0.0448 -0.5444
 3861SOL     OW11717   1.743   2.923   3.498  0.8439 -0.1963  0.6232
 3861SOL    HW111718   1.659   2.969   3.506  0.9938 -0.1962  3.3498
 3861SOL    HW211719   1.776   2.947   3.412 -0.6168  2.1999  0.6423
 3862SOL     OW11720   4.349   4.478   3.301 -0.0615  0.5002 -0.2510
 3862SOL    HW111721   4.355   4.443   3.212  1.2149  1.0788 -0.4110
 3862SOL    HW211722   4.425   4.535   3.310  0.6855 -0.7166  1.7416
 3863SOL     OW11723   1.550   4.795   4.861 -0.5095  0.0988 -0.6765
 3863SOL    HW111724   1.458   4.801   4.887 -1.2366 -0.9418 -2.8582
 3863SOL    HW211725   1.572   4.702   4.869  1.0602  0.5663  1.8371
 3864SOL     OW11726   0.947   5.039   3.481 -0.6351  0.5219 -0.1839
 3864SOL    HW111727   0.872   5.027   3.539  2.7115 -0.1449  4.5589
 3864SOL    HW211728   0.963   4.952   3.444 -1.4989  0.4250 -0.3587
 3865SOL     OW11729   3.971   2.896   4.728 -0.2389  0.0547 -0.2827
 3865SOL    HW111730   4.030   2.969   4.706  0.2349 -0.3981 -0.5288
 3865SOL    HW211731   3.885   2.926   4.700 -0.3134  1.1552  1.0200
 3866SOL     OW11732   0.779   4.240   4.071 -0.5036  0.1732  0.1881
 3866SOL    HW111733   0.807   4.203   3.988 -2.0824  0.7291 -0.6407
 3866SOL    HW211734   0.690   4.207   4.084 -0.8300  1.2508  0.9126
 3867SOL     OW11735   1.454   0.059   0.762 -0.5547  0.1073 -0.5190
 3867SOL    HW111736   1.433   0.066   0.669 -0.8274  1.7731 -0.3773
 3867SOL    HW211737   1.376   0.020   0.802 -1.5151  1.7403 -0.6788
 3868SOL     OW11738   0.623   4.171   2.874  0.2992  0.0065 -0.0207
 3868SOL    HW111739   0.619   4.106   2.943  0.3204  0.6364  0.5919
 3868SOL    HW211740   0.684   4.237   2.907 -0.2752  0.6958 -0.3016
 3869SOL     OW11741   3.026   2.913   3.265 -0.3431 -0.2499 -0.8052
 3869SOL    HW111742   2.933   2.905   3.287 -0.3746  1.9220  0.1581
 3869SOL    HW211743   3.027   2.933   3.172 -0.9351  0.6047 -0.6417
 3870SOL     OW11744   4.378   0.812   3.215 -0.7444  0.4334  0.5622
 3870SOL    HW111745   4.390   0.720   3.235 -0.9906  0.4146  0.6195
 3870SOL    HW211746   4.294   0.835   3.253 -1.4305  0.2911 -0.8006
 3871SOL     OW11747   0.913   3.961   0.803  0.2479  0.5157  0.5178
 3871SOL    HW111748   0.885   3.891   0.862  1.8924 -0.5426  0.1110
 3871SOL    HW211749   0.973   3.918   0.741 -0.1839  1.9107 -0.9437
 3872SOL     OW11750   4.238   0.636   1.847  0.4727 -0.1705 -0.0077
 3872SOL    HW111751   4.179   0.584   1.902  1.4745 -0.6781  0.6127
 3872SOL    HW211752   4.209   0.617   1.758  0.0460 -0.8440  0.2602
 3873SOL     OW11753   5.033   0.047   2.655 -0.1567  0.1708  0.7998
 3873SOL    HW111754   5.080   0.124   2.623  1.3535 -0.5576  1.1252
 3873SOL    HW211755   4.951   0.046   2.607  0.0643  1.6386  0.3511
 3874SOL     OW11756   0.310   0.820   1.297  0.2272 -0.7173  0.4809
 3874SOL    HW111757   0.395   0.777   1.305 -1.2038 -3.6460  1.4012
 3874SOL    HW211758   0.305   0.845   1.205  1.8176 -1.0486  0.2609
 3875SOL     OW11759   0.068   3.508   2.902 -1.1986 -0.8489  0.0622
 3875SOL    HW111760   0.091   3.454   2.827 -0.6013 -0.5972  0.0535
 3875SOL    HW211761   0.108   3.463   2.977  0.9772  0.5383 -0.1754
 3876SOL     OW11762   4.236   0.734   4.629 -0.1623 -0.4622 -0.3807
 3876SOL    HW111763   4.210   0.642   4.621 -1.3462 -0.0233 -2.0521
 3876SOL    HW211764   4.262   0.759   4.540 -1.8680  1.3814 -0.4307
 3877SOL     OW11765   0.724   2.383   0.583  0.0659  0.1723 -0.3391
 3877SOL    HW111766   0.786   2.310   0.573 -1.0045 -0.5554 -2.2029
 3877SOL    HW211767   0.660   2.352   0.647 -0.9103 -0.9580 -1.8094
 3878SOL     OW11768   4.737   4.273   2.096 -0.4067  0.1125 -0.6555
 3878SOL    HW111769   4.675   4.343   2.077 -0.6830  0.1577  0.3589
 3878SOL    HW211770   4.693   4.219   2.161  0.8552  0.5052  0.5734
 3879SOL     OW11771   1.428   1.840   0.392 -0.0108  0.4562  0.1400
 3879SOL    HW111772   1.480   1.920   0.387 -1.1025  1.0936 -1.9010
 3879SOL    HW211773   1.339   1.867   0.369 -0.3338 -1.3793 -0.9420
 3880SOL     OW11774   1.376   4.220   3.310 -0.1464 -0.3765 -0.0194
 3880SOL    HW111775   1.469   4.222   3.332 -0.2481 -1.0485  0.4855
 3880SOL    HW211776   1.354   4.127   3.305 -1.2776 -0.2591  1.9302
 3881SOL     OW11777   5.037   0.861   0.529 -0.4761  0.6641  0.3573
 3881SOL    HW111778   4.960   0.900   0.572 -2.3114 -1.0767 -1.1515
 3881SOL    HW211779   5.015   0.861   0.436  1.0169 -0.6230 -0.0371
 3882SOL     OW11780   4.158   0.852   1.998  0.0584 -0.2110 -0.3042
 3882SOL    HW111781   4.201   0.769   1.979  0.5157  0.2123 -1.2104
 3882SOL    HW211782   4.087   0.857   1.934  0.2240  0.2271 -0.4579
 3883SOL     OW11783   4.288   2.496   0.971  0.3017  0.0794  0.4276
 3883SOL    HW111784   4.290   2.482   0.876  0.2839 -3.5285  0.8073
 3883SOL    HW211785   4.379   2.507   0.996  0.5482 -1.3159  0.2082
 3884SOL     OW11786   2.746   2.925   3.288 -0.0734  0.4296  0.1276
 3884SOL    HW111787   2.759   2.933   3.382  0.0180  1.8805  0.0155
 3884SOL    HW211788   2.652   2.913   3.277 -0.8019  4.4772  0.2773
 3885SOL     OW11789   3.990   2.277   1.111 -0.3176 -0.3906 -0.1019
 3885SOL    HW111790   4.022   2.217   1.178  0.3488 -0.4991 -0.5098
 3885SOL    HW211791   3.900   2.297   1.138  1.2360  3.2375  3.4766
 3886SOL     OW11792   1.145   2.165   4.382  0.1037  0.2637  0.2980
 3886SOL    HW111793   1.051   2.162   4.399 -0.0532  1.0557 -0.3776
 3886SOL    HW211794   1.154   2.137   4.291  0.3854  1.4336 -0.0515
 3887SOL     OW11795   3.523   3.776   0.872 -0.4477 -0.6368 -0.4093
 3887SOL    HW111796   3.532   3.820   0.956 -1.3013 -0.2368 -0.5090
 3887SOL    HW211797   3.533   3.846   0.807  0.6636 -1.0156 -0.6704
 3888SOL     OW11798   1.267   1.664   4.459 -0.0630  0.1987 -0.5585
 3888SOL    HW111799   1.214   1.712   4.396  1.1043  2.2623 -0.0792
 3888SOL    HW211800   1.246   1.705   4.544  1.1773  0.1081 -0.1734
 3889SOL     OW11801   1.981   4.194   4.957 -0.2041  0.4860  0.8462
 3889SOL    HW111802   1.924   4.169   4.884  0.2549 -1.1651  0.9994
 3889SOL    HW211803   1.949   4.280   4.984 -0.8837  0.7998 -0.7838
 3890SOL     OW11804   3.743   1.619   0.877  0.0323  0.1645 -0.5153
 3890SOL    HW111805   3.705   1.543   0.922  2.1788  0.5524  2.2602
 3890SOL    HW211806   3.777   1.583   0.795 -0.4734 -1.5295 -0.0326
 3891SOL     OW11807   0.885   0.475   3.928  0.7596 -0.2479 -0.2357
 3891SOL    HW111808   0.857   0.471   3.836 -0.1806  1.5377 -0.0615
 3891SOL    HW211809   0.970   0.520   3.925  0.6018  0.0509 -0.2039
 3892SOL     OW11810   2.375   1.654   2.359  0.7777  0.0568 -0.2171
 3892SOL    HW111811   2.373   1.593   2.285  1.1688  0.0176 -0.1956
 3892SOL    HW211812   2.312   1.723   2.334  0.8436  0.0009 -0.5480
 3893SOL     OW11813   4.288   3.367   2.426  0.3913 -1.0085  0.1704
 3893SOL    HW111814   4.335   3.384   2.508 -0.1291  1.5196  0.0184
 3893SOL    HW211815   4.356   3.366   2.359  0.4954  0.4346  0.2290
 3894SOL     OW11816   0.828   4.524   0.989 -0.0017  0.7629  0.1648
 3894SOL    HW111817   0.788   4.459   1.047 -3.3984  1.8262 -0.7921
 3894SOL    HW211818   0.876   4.582   1.048  0.2662 -0.6180  1.3792
 3895SOL     OW11819   0.227   3.876   3.176  0.4136  0.8068 -0.4224
 3895SOL    HW111820   0.208   3.783   3.180  2.7395  0.2899  2.9960
 3895SOL    HW211821   0.251   3.892   3.085 -1.5797 -1.5128 -1.4632
 3896SOL     OW11822   3.445   0.949   4.956 -0.0861 -0.6675  0.6944
 3896SOL    HW111823   3.505   0.895   5.008 -2.5706 -1.9831  2.3591
 3896SOL    HW211824   3.360   0.939   4.998 -1.5094  1.2568 -1.4611
 3897SOL     OW11825   2.263   1.457   0.708  0.5277 -0.2931  0.3743
 3897SOL    HW111826   2.261   1.393   0.779  2.0750 -0.3610  0.3861
 3897SOL    HW211827   2.356   1.467   0.687  0.2154  0.9686 -0.5210
 3898SOL     OW11828   2.447   4.572   2.178 -0.3948 -0.1710 -0.4000
 3898SOL    HW111829   2.379   4.573   2.110  0.7872 -0.5978 -1.6354
 3898SOL    HW211830   2.514   4.513   2.143  0.1169 -0.6364  1.2983
 3899SOL     OW11831   3.515   3.643   4.472 -0.0508  0.5069 -0.4169
 3899SOL    HW111832   3.436   3.592   4.489  0.8304 -0.9360 -0.4465
 3899SOL    HW211833   3.549   3.664   4.559 -0.2907  0.8434 -0.4039
 3900SOL     OW11834   3.754   3.722   1.935  0.6861  0.1124 -0.8034
 3900SOL    HW111835   3.808   3.644   1.924  2.2390  1.1763 -1.0451
 3900SOL    HW211836   3.808   3.794   1.900 -0.4271  1.3861  0.0048
 3901SOL     OW11837   1.137   0.921   0.196 -0.7465  0.5663  0.1273
 3901SOL    HW111838   1.068   0.984   0.177  1.1791  2.9779  0.7336
 3901SOL    HW211839   1.140   0.918   0.292  0.4179  1.0077  0.1150
 3902SOL     OW11840   3.925   0.464   2.899  0.8935 -0.4351  0.8443
 3902SOL    HW111841   3.904   0.377   2.931 -1.0029 -0.5710 -0.6089
 3902SOL    HW211842   3.902   0.462   2.806  1.9026  1.2762  0.5122
 3903SOL     OW11843   2.547   0.553   4.267  0.0560  0.5232  0.3416
 3903SOL    HW111844   2.540   0.623   4.202  1.9722 -0.1391 -0.6381
 3903SOL    HW211845   2.575   0.477   4.217  1.3048 -0.0868  1.8969
 3904SOL     OW11846   2.225   1.506   4.224  0.6648  0.2408  0.9588
 3904SOL    HW111847   2.302   1.481   4.173  1.3896  0.5291  1.8800
 3904SOL    HW211848   2.197   1.425   4.267  0.4049  0.1230  0.5754
 3905SOL     OW11849   0.676   4.972   3.630 -0.6967 -0.5726 -0.0159
 3905SOL    HW111850   0.582   4.989   3.630 -0.3748  1.4159 -0.5504
 3905SOL    HW211851   0.689   4.907   3.700 -2.1921  0.7409  1.5649
 3906SOL     OW11852   3.894   1.382   1.299 -0.8270  0.6072  0.1712
 3906SOL    HW111853   3.950   1.381   1.221  0.4921  0.8294  1.0704
 3906SOL    HW211854   3.811   1.346   1.270  0.3952 -1.6655 -0.8173
 3907SOL     OW11855   1.706   2.560   0.044 -0.8852  0.4513 -0.7802
 3907SOL    HW111856   1.801   2.550   0.055 -1.0982  0.2598  1.1837
 3907SOL    HW211857   1.688   2.522  -0.042  0.8588  0.8289 -1.3661
 3908SOL     OW11858   0.285   0.006   0.580  0.0216  0.7904  0.5663
 3908SOL    HW111859   0.258   0.097   0.570 -1.6018  0.3424  0.6452
 3908SOL    HW211860   0.381   0.009   0.578 -0.0150  2.4229  0.0034
 3909SOL     OW11861   0.282   0.108   3.456  0.3216 -0.4650 -0.0711
 3909SOL    HW111862   0.357   0.154   3.493 -0.8404 -0.0793  1.9539
 3909SOL    HW211863   0.265   0.153   3.373  0.8892  1.0017  0.5795
 3910SOL     OW11864   4.509   3.548   0.315  0.0262 -0.2864  0.0172
 3910SOL    HW111865   4.432   3.605   0.309 -0.0456 -0.5322 -1.6677
 3910SOL    HW211866   4.473   3.464   0.344 -0.1383 -0.0521  0.5229
 3911SOL     OW11867   3.224   1.952   0.673  0.7168  0.0837  0.1615
 3911SOL    HW111868   3.239   1.932   0.765 -1.4444 -0.1844  0.5072
 3911SOL    HW211869   3.158   2.022   0.673  0.8147  0.2114 -1.1612
 3912SOL     OW11870   0.081   4.757   2.303 -0.6468 -0.1215  0.1719
 3912SOL    HW111871   0.110   4.831   2.249  0.1855 -0.1489  0.5687
 3912SOL    HW211872   0.047   4.797   2.383  1.1568 -0.2049  1.0172
 3913SOL     OW11873   2.375   3.508   4.535 -0.1137  0.7118  1.0923
 3913SOL    HW111874   2.305   3.530   4.597 -1.5381  0.6048 -0.4095
 3913SOL    HW211875   2.383   3.413   4.541  0.0854  0.7481  1.4385
 3914SOL     OW11876   1.910   0.035   3.856  0.3756 -0.4926 -0.0908
 3914SOL    HW111877   1.816   0.045   3.841  0.1626  1.7117  2.0294
 3914SOL    HW211878   1.951   0.084   3.785 -0.1974  0.6089  0.3134
 3915SOL     OW11879   3.548   1.591   2.985 -0.7326  0.3942 -0.3759
 3915SOL    HW111880   3.566   1.684   2.999 -1.7108  0.5684 -0.1415
 3915SOL    HW211881   3.590   1.570   2.902 -0.7276  1.1206 -0.5647
 3916SOL     OW11882   4.668   3.729   1.249  0.0918 -0.5209 -0.4764
 3916SOL    HW111883   4.693   3.821   1.239  0.0510 -0.5451 -0.8090
 3916SOL    HW211884   4.589   3.731   1.303  0.1313 -0.3652 -0.4233
 3917SOL     OW11885   1.315   4.051   2.990  0.5203  0.2895 -0.7061
 3917SOL    HW111886   1.376   4.094   2.930  0.7117  0.2182 -0.5636
 3917SOL    HW211887   1.305   3.963   2.954  0.8999  0.1366 -0.4469
 3918SOL     OW11888   0.653   1.451   1.305 -0.0357 -0.0307  0.1447
 3918SOL    HW111889   0.736   1.445   1.352 -0.8164 -1.6082  1.4053
 3918SOL    HW211890   0.650   1.373   1.250 -0.6664  0.0311  0.0801
 3919SOL     OW11891   2.676   0.094   1.767  0.4662  0.3166  0.2953
 3919SOL    HW111892   2.682   0.135   1.853  1.1274  0.7439  0.0516
 3919SOL    HW211893   2.588   0.118   1.735  0.4284  0.6134  0.6163
 3920SOL     OW11894   4.188   3.080   4.286 -0.6068  0.2335  0.2159
 3920SOL    HW111895   4.163   3.009   4.227 -0.0204 -0.3283  0.6321
 3920SOL    HW211896   4.130   3.070   4.361 -1.5535  1.1256 -0.3603
 3921SOL     OW11897   0.858   4.906   0.928  0.2198  0.0759 -0.4237
 3921SOL    HW111898   0.903   4.883   1.009  0.8922  1.0070 -0.5189
 3921SOL    HW211899   0.778   4.949   0.956 -0.1608 -0.7229 -0.2579
 3922SOL     OW11900   2.104   2.879   2.810  0.2655 -0.2109  0.7973
 3922SOL    HW111901   2.148   2.827   2.877  0.3581  1.1400  1.8270
 3922SOL    HW211902   2.123   2.970   2.833 -2.4556  0.4206  0.8791
 3923SOL     OW11903   3.793   0.853   4.859 -0.1830 -0.1300  0.1888
 3923SOL    HW111904   3.846   0.863   4.780  0.3836  2.0672  0.7502
 3923SOL    HW211905   3.765   0.943   4.879 -1.1379 -0.7769  1.9143
 3924SOL     OW11906   4.720   4.027   1.857  0.1457  0.0571  0.0687
 3924SOL    HW111907   4.679   3.984   1.782  0.8515  0.4584 -0.5652
 3924SOL    HW211908   4.758   4.107   1.820 -0.0031  0.5564  0.9702
 3925SOL     OW11909   4.152   1.761   2.315 -0.5138 -0.2826 -0.6171
 3925SOL    HW111910   4.234   1.746   2.268  1.4320  1.1635  1.9855
 3925SOL    HW211911   4.150   1.856   2.328 -1.8804 -0.4491  0.5722
 3926SOL     OW11912   4.431   1.174   4.123  0.5945  0.8384 -0.4664
 3926SOL    HW111913   4.409   1.176   4.030 -0.2904  2.3470 -0.2659
 3926SOL    HW211914   4.467   1.260   4.141  0.3094  0.7411  0.6769
 3927SOL     OW11915   1.566   1.727   4.462  0.1313  0.3308 -0.1513
 3927SOL    HW111916   1.472   1.742   4.462  0.1778  0.6406 -0.4688
 3927SOL    HW211917   1.596   1.763   4.546 -0.3796 -2.1390  1.1906
 3928SOL     OW11918   3.615   4.491   2.672  0.4370 -0.3238  0.0090
 3928SOL    HW111919   3.659   4.497   2.587  2.2864  1.8823  0.9701
 3928SOL    HW211920   3.618   4.581   2.706  0.6873 -1.2768  2.8010
 3929SOL     OW11921   4.056   4.536   2.954  0.4585 -0.3344  0.1249
 3929SOL    HW111922   4.086   4.626   2.940  1.4467 -0.4978  1.0719
 3929SOL    HW211923   3.975   4.530   2.903  0.2582  1.1539  0.2083
 3930SOL     OW11924   0.401   4.469   3.781  0.6355 -0.6007 -0.1488
 3930SOL    HW111925   0.357   4.419   3.850 -0.7221 -0.9411 -1.2117
 3930SOL    HW211926   0.474   4.413   3.754 -1.0942 -2.3169 -1.6057
 3931SOL     OW11927   4.116   3.103   2.531  0.8038  0.6296  0.1681
 3931SOL    HW111928   4.125   3.198   2.530 -0.4593  0.7749 -1.4709
 3931SOL    HW211929   4.062   3.085   2.608  0.9969  1.2378  0.4543
 3932SOL     OW11930   4.851   4.742   4.995 -0.0354  0.1351 -0.2807
 3932SOL    HW111931   4.809   4.825   4.974 -0.3761  0.4714  1.5388
 3932SOL    HW211932   4.779   4.685   5.022  0.3745 -0.2101  0.1018
 3933SOL     OW11933   2.248   2.610   1.096 -0.3882  0.1924  0.2492
 3933SOL    HW111934   2.192   2.535   1.076  0.8865 -0.7940  0.2584
 3933SOL    HW211935   2.215   2.641   1.181 -0.0068 -1.3008  0.9826
 3934SOL     OW11936   3.287   1.905   0.919 -0.2083 -0.4832  0.4625
 3934SOL    HW111937   3.327   1.818   0.911  0.7876  0.0318 -0.4364
 3934SOL    HW211938   3.361   1.965   0.927 -0.7637  0.4888 -1.1434
 3935SOL     OW11939   2.806   4.169   3.922  0.2671 -0.2457  0.2464
 3935SOL    HW111940   2.815   4.155   3.828 -0.8845  0.9301 -0.0781
 3935SOL    HW211941   2.850   4.094   3.963 -3.0006 -3.2550 -1.2677
 3936SOL     OW11942   1.803   4.454   3.883  0.4476 -0.1859 -0.1151
 3936SOL    HW111943   1.858   4.429   3.809  0.8733  0.9555 -0.2038
 3936SOL    HW211944   1.864   4.491   3.947 -0.1881  0.9931 -0.1612
 3937SOL     OW11945   1.216   2.562   0.967  0.0291 -0.4012 -0.1326
 3937SOL    HW111946   1.134   2.537   1.011  1.2673 -0.8474  2.0601
 3937SOL    HW211947   1.207   2.656   0.951 -1.5148 -0.7076 -1.3928
 3938SOL     OW11948   5.015   3.568   0.920  0.6091  1.0672 -0.1228
 3938SOL    HW111949   4.969   3.499   0.872  1.1483 -0.6873  1.7303
 3938SOL    HW211950   5.093   3.586   0.868  1.3758 -1.0572  0.2036
 3939SOL     OW11951   1.468   4.559   4.378 -0.2830  0.5546  0.2762
 3939SOL    HW111952   1.459   4.470   4.343  2.0981  1.0787 -2.0186
 3939SOL    HW211953   1.384   4.601   4.360 -0.8860 -0.7574 -0.0680
 3940SOL     OW11954   0.424   3.976   1.430 -0.2765  0.2300 -0.3873
 3940SOL    HW111955   0.445   3.952   1.521 -0.7515  0.2103 -0.2811
 3940SOL    HW211956   0.504   4.017   1.397 -0.5689  1.5993  0.5190
 3941SOL     OW11957   1.730   0.713   2.340  0.3992 -0.2528  0.2781
 3941SOL    HW111958   1.809   0.749   2.381  1.0645 -2.1512  0.7596
 3941SOL    HW211959   1.736   0.738   2.248  1.1591  0.2514  0.4594
 3942SOL     OW11960   3.246   4.324   3.352  0.1270 -0.6053 -0.0277
 3942SOL    HW111961   3.250   4.417   3.374  0.7224 -0.2889 -1.4112
 3942SOL    HW211962   3.160   4.296   3.383 -0.4174  0.6126 -0.4010
 3943SOL     OW11963   3.069   1.329   2.297  0.1406 -0.6976  0.2763
 3943SOL    HW111964   3.121   1.250   2.288 -0.6587 -1.3204  0.9332
 3943SOL    HW211965   3.133   1.400   2.296  1.0139 -1.4432  1.1041
 3944SOL     OW11966   1.214   0.850   1.474  0.0110  0.1936 -0.3176
 3944SOL    HW111967   1.309   0.835   1.473 -0.1452 -1.1372 -2.4000
 3944SOL    HW211968   1.195   0.885   1.386 -1.3190  1.3999  0.4071
 3945SOL     OW11969   3.905   0.366   4.864  0.6725 -0.0357 -0.5175
 3945SOL    HW111970   3.866   0.413   4.790 -0.1703  1.6886  0.9348
 3945SOL    HW211971   3.996   0.397   4.867  0.2776  1.1573  0.0788
 3946SOL     OW11972   1.945   0.536   0.807 -0.4721 -0.8371 -0.4008
 3946SOL    HW111973   1.951   0.622   0.766  2.5120 -1.2245 -0.9904
 3946SOL    HW211974   2.013   0.536   0.874 -2.8540 -1.5074  2.2596
 3947SOL     OW11975   2.374   0.218   4.686  0.4671 -0.2885  0.3107
 3947SOL    HW111976   2.437   0.148   4.668  0.6761 -0.5297  1.8570
 3947SOL    HW211977   2.422   0.280   4.742  0.0948  0.8038 -0.5281
 3948SOL     OW11978   2.989   1.066   3.047 -0.8350 -0.2942 -0.1457
 3948SOL    HW111979   3.041   1.068   2.967 -1.1090  1.0449 -0.3223
 3948SOL    HW211980   3.017   0.986   3.092  1.3558  0.3414 -0.2440
 3949SOL     OW11981   2.316   2.859   0.037 -0.0741 -0.6393  0.6992
 3949SOL    HW111982   2.368   2.919   0.090 -0.8821  2.5634 -1.8458
 3949SOL    HW211983   2.227   2.868   0.071 -0.4501  0.8183 -0.5524
 3950SOL     OW11984   1.028   0.786   4.282  0.2346 -0.2525 -0.5770
 3950SOL    HW111985   0.966   0.725   4.321 -0.4732  0.7890 -0.0285
 3950SOL    HW211986   1.000   0.795   4.191  0.1817 -0.5470 -0.5895
 3951SOL     OW11987   1.704   1.079   1.564 -0.4879  0.5337  0.4914
 3951SOL    HW111988   1.681   1.152   1.506  0.9255  0.5008 -0.1489
 3951SOL    HW211989   1.770   1.114   1.623  0.4295 -0.2714 -0.0145
 3952SOL     OW11990   1.400   1.406   0.594 -0.1559  0.2977  0.0672
 3952SOL    HW111991   1.377   1.481   0.539 -3.1852  0.9023  1.9572
 3952SOL    HW211992   1.471   1.439   0.650  1.4296  0.3471 -1.8407
 3953SOL     OW11993   1.798   3.352   0.873 -0.3895 -0.1641 -0.3887
 3953SOL    HW111994   1.779   3.438   0.910  1.5913  0.6476 -1.1094
 3953SOL    HW211995   1.797   3.367   0.778  0.4332 -0.8172 -0.5058
 3954SOL     OW11996   1.415   1.230   2.874 -0.6095 -0.3688 -0.4567
 3954SOL    HW111997   1.478   1.174   2.830  0.6543  0.3620  0.3578
 3954SOL    HW211998   1.468   1.288   2.929 -2.0545 -1.5910  2.4807
 3955SOL     OW11999   4.847   3.629   3.004 -0.2645 -0.0207 -0.7423
 3955SOL    HW112000   4.934   3.603   2.973  0.0511 -0.1304  0.1925
 3955SOL    HW212001   4.856   3.632   3.099 -2.1247 -3.2252 -0.3208
 3956SOL     OW12002   3.033   4.731   2.266 -0.0478  0.0767 -0.5967
 3956SOL    HW112003   2.981   4.651   2.263 -0.1272  0.1498 -3.0738
 3956SOL    HW212004   3.123   4.701   2.252  0.1398  0.2815  0.1353
 3957SOL     OW12005   3.609   1.403   0.998  0.6517  0.1201  0.5513
 3957SOL    HW112006   3.636   1.342   0.928  0.0418  0.2416  0.2060
 3957SOL    HW212007   3.524   1.370   1.026 -1.1958  2.5281 -1.7505
 3958SOL     OW12008   4.476   0.171   0.622 -1.1263  0.4503 -0.3923
 3958SOL    HW112009   4.418   0.107   0.581 -0.1388 -0.2439 -0.7445
 3958SOL    HW212010   4.421   0.247   0.637 -1.4175  1.0100 -3.6103
 3959SOL     OW12011   4.001   2.240   2.515 -0.6606  0.1192  0.2404
 3959SOL    HW112012   4.030   2.250   2.424 -2.2024 -1.4979 -0.4933
 3959SOL    HW212013   3.921   2.293   2.520  0.1316  1.2692  1.0609
 3960SOL     OW12014   1.035   4.766   3.447  0.3945 -0.4616  0.1707
 3960SOL    HW112015   1.021   4.695   3.385  0.3289 -1.7808  1.6123
 3960SOL    HW212016   0.994   4.735   3.528 -1.0679  1.9287  0.4445
 3961SOL     OW12017   0.787   0.815   4.129  0.5875  0.2728 -0.1102
 3961SOL    HW112018   0.823   0.855   4.050  0.8258 -1.8486 -1.1426
 3961SOL    HW212019   0.703   0.779   4.102  0.9967 -1.1242  0.3753
 3962SOL     OW12020   3.499   3.443   4.051 -0.4805  0.5760  0.0420
 3962SOL    HW112021   3.496   3.407   4.139 -0.0694  0.4619  0.0138
 3962SOL    HW212022   3.415   3.487   4.039 -1.2367 -0.8619 -0.1291
 3963SOL     OW12023   3.832   3.108   1.862  0.5544 -0.0858  0.0413
 3963SOL    HW112024   3.820   3.014   1.867  1.8452 -0.1941  2.4612
 3963SOL    HW212025   3.748   3.142   1.832 -0.1145 -1.9423 -0.2849
 3964SOL     OW12026   0.733   2.477   3.833 -0.5809  0.0729 -0.1283
 3964SOL    HW112027   0.777   2.401   3.870 -2.2534 -1.9777 -2.0615
 3964SOL    HW212028   0.684   2.443   3.758 -0.3120  3.3095 -1.9822
 3965SOL     OW12029   3.467   2.118   0.637 -0.1030 -0.4262  0.0082
 3965SOL    HW112030   3.395   2.132   0.576 -0.8608 -2.4296  0.3681
 3965SOL    HW212031   3.463   2.025   0.658  1.9664 -0.3839  0.8497
 3966SOL     OW12032   3.748   4.449   3.831  0.0006  0.1787  0.4252
 3966SOL    HW112033   3.680   4.382   3.831  0.6098 -0.5251 -1.6959
 3966SOL    HW212034   3.809   4.421   3.899 -0.2603 -0.8863  0.2393
 3967SOL     OW12035   4.344   1.623   3.607 -0.2576 -0.1033  0.1388
 3967SOL    HW112036   4.257   1.634   3.569  0.2249 -0.4834 -1.1520
 3967SOL    HW212037   4.387   1.558   3.551  0.2926 -1.2013  1.7494
 3968SOL     OW12038   0.495   1.373   3.672  0.3828 -0.3874  0.7898
 3968SOL    HW112039   0.554   1.359   3.746  0.1791 -1.3867  0.7859
 3968SOL    HW212040   0.470   1.284   3.645  0.4959 -0.0465 -0.5114
 3969SOL     OW12041   0.943   4.395   4.452 -0.0127 -0.7507  0.3652
 3969SOL    HW112042   0.847   4.395   4.449 -0.1482 -4.6917 -0.4681
 3969SOL    HW212043   0.969   4.386   4.361  0.9239 -3.3671  0.8237
 3970SOL     OW12044   2.530   2.779   4.077  0.2501  0.3261 -0.1805
 3970SOL    HW112045   2.485   2.824   4.148  0.3333 -0.5998  0.4852
 3970SOL    HW212046   2.601   2.731   4.120 -0.7357 -1.6508 -0.6037
 3971SOL     OW12047   2.165   2.754   1.357  0.3940 -0.2354  0.5242
 3971SOL    HW112048   2.094   2.703   1.395 -1.0267  1.0691 -0.2115
 3971SOL    HW212049   2.126   2.841   1.344  2.2654  0.6284  0.4383
 3972SOL     OW12050   0.343   1.012   2.452  0.2179 -0.4100 -0.0621
 3972SOL    HW112051   0.404   0.951   2.494  1.2521 -0.8627 -2.0919
 3972SOL    HW212052   0.399   1.068   2.399 -0.9269  0.9925  0.1701
 3973SOL     OW12053   3.178   3.534   3.461 -0.0419 -1.1660 -0.2473
 3973SOL    HW112054   3.203   3.448   3.427  0.2385 -1.0419 -0.3589
 3973SOL    HW212055   3.174   3.522   3.556  1.0404 -1.0487 -0.1671
 3974SOL     OW12056   0.449   2.120   0.624 -0.0912 -0.2101 -0.5660
 3974SOL    HW112057   0.514   2.177   0.666 -0.8029 -0.3290  0.7640
 3974SOL    HW212058   0.377   2.178   0.600 -0.7500 -0.4948  0.6500
 3975SOL     OW12059   2.974   4.181   3.323  0.3814 -0.5904  0.0896
 3975SOL    HW112060   2.958   4.099   3.277 -0.3178 -0.3474 -0.1082
 3975SOL    HW212061   2.891   4.229   3.318  0.2731 -0.5717  1.6549
 3976SOL     OW12062   4.661   1.741   3.371  0.3449  0.1102 -0.8153
 3976SOL    HW112063   4.606   1.672   3.334  1.5661 -2.6069  1.9616
 3976SOL    HW212064   4.744   1.734   3.323  1.3225 -2.2258  0.9798
 3977SOL     OW12065   3.560   3.232   3.140 -0.5182 -0.4001  0.0007
 3977SOL    HW112066   3.569   3.255   3.047  0.8621 -1.9659 -0.2944
 3977SOL    HW212067   3.513   3.148   3.139 -3.2844  1.0020  0.9267
 3978SOL     OW12068   1.039   3.756   1.125 -0.2394 -0.6646  0.4089
 3978SOL    HW112069   1.031   3.783   1.216  0.4053 -0.6268  0.4561
 3978SOL    HW212070   0.950   3.762   1.090 -0.0656  2.1441  0.2339
 3979SOL     OW12071   4.375   4.323   1.601 -0.2968  0.3523 -0.1000
 3979SOL    HW112072   4.385   4.358   1.689  0.5208  0.1866 -0.1208
 3979SOL    HW212073   4.320   4.245   1.612  2.2819 -1.4722  0.7377
 3980SOL     OW12074   3.779   2.850   3.737 -0.2155 -0.2324  0.4300
 3980SOL    HW112075   3.732   2.774   3.771  1.0121 -0.5722  1.4387
 3980SOL    HW212076   3.871   2.830   3.753  0.1381  1.4303  0.6053
 3981SOL     OW12077   0.391   1.186   1.377  0.2753  0.4760  0.1808
 3981SOL    HW112078   0.421   1.258   1.433  0.1534  0.5891  0.1011
 3981SOL    HW212079   0.471   1.140   1.353  0.4929  1.2805 -0.7330
 3982SOL     OW12080   1.647   2.848  -0.033  0.3170  0.4179  0.3907
 3982SOL    HW112081   1.641   2.911   0.039 -1.3610  2.3499 -1.3125
 3982SOL    HW212082   1.648   2.762   0.010 -0.2270  1.4903  2.7045
 3983SOL     OW12083   5.003   0.830   0.247 -0.3290 -0.3441  0.2814
 3983SOL    HW112084   5.097   0.811   0.238 -0.2022  0.8052 -1.2742
 3983SOL    HW212085   4.963   0.784   0.174 -1.0952 -1.4002  1.3424
 3984SOL     OW12086   2.045   3.666   3.844  0.1291  0.0840 -0.2396
 3984SOL    HW112087   2.035   3.679   3.939  1.4368 -0.4496 -0.0092
 3984SOL    HW212088   2.139   3.673   3.829 -0.0226 -0.2896 -1.4355
 3985SOL     OW12089   0.899   3.335   1.036 -0.0034 -0.0229 -0.3132
 3985SOL    HW112090   0.840   3.304   0.967 -1.4983 -0.0276  0.9049
 3985SOL    HW212091   0.937   3.415   1.001 -2.9552  1.6019 -0.1489
 3986SOL     OW12092   0.764   0.217   0.391  0.1232 -0.3927  0.0840
 3986SOL    HW112093   0.804   0.130   0.391 -1.6992 -1.2595 -0.1294
 3986SOL    HW212094   0.838   0.277   0.405  1.4438 -1.9369 -0.0141
 3987K        K12095   2.886   0.282   4.232 -0.0563 -0.1686 -0.1926
 3988K        K12096   0.422   1.646   0.727  0.2845 -0.0821  0.1019
 3989K        K12097   0.907   1.412   0.484  0.4008  0.0388  0.0368
 3990K        K12098   1.079   0.668   1.641 -0.1207  0.1203 -0.5371
 3991K        K12099   1.370   0.149   0.119  0.2604 -0.4279  0.2946
 3992K        K12100   2.484   4.858   2.183 -0.1836  0.0917  0.2697
 3993K        K12101   2.879   3.676   0.829 -0.1986 -0.1060  0.1539
 3994K        K12102   1.686   4.669   0.652  0.0645  0.1645 -0.0998
 3995K        K12103   3.392   0.457   2.342  0.5376  0.1362  0.0684
 3996K        K12104   1.188   1.396   0.170  0.1082 -0.3027  0.0645
 3997K        K12105   2.009   0.696   3.865  0.2029  0.4626  0.1871
 3998K        K12106   1.870   0.154   0.535 -0.2884  0.1375 -0.2847
 3999K        K12107   0.065   4.333   1.088  0.0835 -0.3270  0.3003
 4000CL      CL12108   4.031   4.888   3.835 -0.1734  0.2818  0.4332
 4001CL      CL12109   4.873   4.327   1.240  0.5921  0.3886  0.5581
 4002CL      CL12110   1.145   5.040   5.015  0.1837 -0.0385 -0.0031
 4003CL      CL12111   3.327   0.421   2.630  0.4795  0.6022  0.1005
 4004CL      CL12112   1.877   4.924   0.655 -0.2856 -0.7890 -0.6519
 4005CL      CL12113   2.678   4.909   2.394 -0.1148 -0.2410 -0.7384
 4006CL      CL12114   0.672   1.511   0.665  0.2272 -0.0427 -0.3974
 4007CL      CL12115   3.046   3.598   1.057 -0.1222  0.1028  0.0498
 4008CL      CL12116   0.613   2.707   4.768  0.0440 -0.1796 -0.0601
 4009CL      CL12117   0.868   1.502   0.159  0.3541 -0.1623  0.1712
 4010CL      CL12118   1.533   0.788   0.364  0.3777  0.2664 -0.0939
   5.04246   5.04246   5.04246
