CLN025
12118
    1TYR      N    1   2.593   2.948   3.023
    1TYR     H1    2   2.495   2.929   3.002
    1TYR     H2    3   2.630   2.866   3.070
    1TYR     H3    4   2.598   3.026   3.087
    1TYR     CA    5   2.667   2.975   2.900
    1TYR     HA    6   2.635   3.071   2.860
    1TYR     CB    7   2.819   2.981   2.924
    1TYR    HB1    8   2.851   2.889   2.973
    1TYR    HB2    9   2.839   3.063   2.993
    1TYR     CG   10   2.902   3.001   2.799
    1TYR    CD1   11   2.918   3.131   2.745
    1TYR    HD1   12   2.873   3.216   2.794
    1TYR    CE1   13   2.996   3.150   2.630
    1TYR    HE1   14   3.010   3.249   2.590
    1TYR     CZ   15   3.057   3.040   2.566
    1TYR     OH   16   3.134   3.060   2.455
    1TYR     HH   17   3.183   2.981   2.428
    1TYR    CE2   18   3.040   2.910   2.619
    1TYR    HE2   19   3.086   2.826   2.570
    1TYR    CD2   20   2.963   2.891   2.735
    1TYR    HD2   21   2.949   2.792   2.775
    1TYR      C   22   2.632   2.868   2.798
    1TYR      O   23   2.663   2.752   2.818
    2TYR      N   24   2.564   2.909   2.691
    2TYR      H   25   2.548   3.009   2.680
    2TYR     CA   26   2.503   2.822   2.591
    2TYR     HA   27   2.429   2.759   2.642
    2TYR     CB   28   2.431   2.913   2.491
    2TYR    HB1   29   2.506   2.970   2.436
    2TYR    HB2   30   2.370   2.984   2.546
    2TYR     CG   31   2.340   2.842   2.393
    2TYR    CD1   32   2.218   2.790   2.438
    2TYR    HD1   33   2.193   2.797   2.543
    2TYR    CE1   34   2.127   2.735   2.347
    2TYR    HE1   35   2.032   2.697   2.382
    2TYR     CZ   36   2.158   2.732   2.210
    2TYR     OH   37   2.066   2.684   2.123
    2TYR     HH   38   2.103   2.676   2.032
    2TYR    CE2   39   2.282   2.781   2.164
    2TYR    HE2   40   2.306   2.778   2.059
    2TYR    CD2   41   2.374   2.836   2.256
    2TYR    HD2   42   2.468   2.877   2.221
    2TYR      C   43   2.604   2.731   2.520
    2TYR      O   44   2.712   2.775   2.482
    3ASP      N   45   2.567   2.605   2.496
    3ASP      H   46   2.476   2.572   2.529
    3ASP     CA   47   2.647   2.511   2.419
    3ASP     HA   48   2.748   2.551   2.405
    3ASP     CB   49   2.665   2.380   2.496
    3ASP    HB1   50   2.568   2.339   2.525
    3ASP    HB2   51   2.723   2.399   2.587
    3ASP     CG   52   2.740   2.278   2.410
    3ASP    OD1   53   2.839   2.317   2.345
    3ASP    OD2   54   2.697   2.161   2.404
    3ASP      C   55   2.587   2.485   2.279
    3ASP      O   56   2.495   2.403   2.267
    4PRO      N   57   2.639   2.547   2.172
    4PRO     CD   58   2.724   2.666   2.175
    4PRO    HD1   59   2.819   2.646   2.224
    4PRO    HD2   60   2.672   2.747   2.226
    4PRO     CG   61   2.748   2.704   2.029
    4PRO    HG1   62   2.843   2.662   1.995
    4PRO    HG2   63   2.748   2.812   2.016
    4PRO     CB   64   2.632   2.638   1.955
    4PRO    HB1   65   2.657   2.619   1.850
    4PRO    HB2   66   2.544   2.701   1.962
    4PRO     CA   67   2.610   2.509   2.034
    4PRO     HA   68   2.505   2.479   2.024
    4PRO      C   69   2.699   2.394   1.983
    4PRO      O   70   2.676   2.344   1.873
    5GLU      N   71   2.802   2.353   2.059
    5GLU      H   72   2.810   2.389   2.153
    5GLU     CA   73   2.912   2.266   2.013
    5GLU     HA   74   2.923   2.278   1.906
    5GLU     CB   75   3.041   2.315   2.079
    5GLU    HB1   76   3.037   2.280   2.182
    5GLU    HB2   77   3.044   2.424   2.081
    5GLU     CG   78   3.170   2.265   2.011
    5GLU    HG1   79   3.198   2.337   1.934
    5GLU    HG2   80   3.152   2.171   1.960
    5GLU     CD   81   3.287   2.245   2.108
    5GLU    OE1   82   3.403   2.236   2.060
    5GLU    OE2   83   3.267   2.231   2.231
    5GLU      C   84   2.888   2.117   2.041
    5GLU      O   85   2.945   2.031   1.974
    6THR      N   86   2.799   2.083   2.135
    6THR      H   87   2.770   2.154   2.201
    6THR     CA   88   2.727   1.954   2.136
    6THR     HA   89   2.758   1.894   2.050
    6THR     CB   90   2.760   1.871   2.261
    6THR     HB   91   2.734   1.926   2.351
    6THR    CG2   92   2.685   1.738   2.264
    6THR   HG21   93   2.719   1.679   2.350
    6THR   HG22   94   2.578   1.755   2.277
    6THR   HG23   95   2.702   1.682   2.172
    6THR    OG1   96   2.897   1.839   2.263
    6THR    HG1   97   2.942   1.908   2.315
    6THR      C   98   2.577   1.976   2.121
    6THR      O   99   2.513   1.904   2.044
    7GLY      N  100   2.520   2.079   2.185
    7GLY      H  101   2.576   2.128   2.254
    7GLY     CA  102   2.384   2.126   2.159
    7GLY    HA1  103   2.338   2.069   2.079
    7GLY    HA2  104   2.389   2.229   2.126
    7GLY      C  105   2.292   2.118   2.282
    7GLY      O  106   2.197   2.039   2.281
    8THR      N  107   2.320   2.197   2.385
    8THR      H  108   2.398   2.261   2.376
    8THR     CA  109   2.245   2.198   2.513
    8THR     HA  110   2.145   2.160   2.495
    8THR     CB  111   2.314   2.105   2.614
    8THR     HB  112   2.414   2.144   2.635
    8THR    CG2  113   2.236   2.089   2.745
    8THR   HG21  114   2.280   2.009   2.805
    8THR   HG22  115   2.242   2.181   2.802
    8THR   HG23  116   2.133   2.064   2.724
    8THR    OG1  117   2.327   1.974   2.564
    8THR    HG1  118   2.386   1.927   2.626
    8THR      C  119   2.233   2.341   2.569
    8THR      O  120   2.323   2.423   2.553
    9TRP      N  121   2.122   2.371   2.639
    9TRP      H  122   2.053   2.299   2.653
    9TRP     CA  123   2.109   2.495   2.716
    9TRP     HA  124   2.155   2.576   2.660
    9TRP     CB  125   1.960   2.533   2.738
    9TRP    HB1  126   1.942   2.548   2.844
    9TRP    HB2  127   1.897   2.449   2.707
    9TRP     CG  128   1.915   2.657   2.667
    9TRP    CD1  129   1.822   2.663   2.569
    9TRP    HD1  130   1.767   2.578   2.531
    9TRP    NE1  131   1.810   2.793   2.523
    9TRP    HE1  132   1.748   2.821   2.447
    9TRP    CE2  133   1.898   2.878   2.588
    9TRP    CZ2  134   1.928   3.014   2.573
    9TRP    HZ2  135   1.878   3.072   2.496
    9TRP    CH2  136   2.027   3.071   2.654
    9TRP    HH2  137   2.055   3.175   2.641
    9TRP    CZ3  138   2.091   2.993   2.752
    9TRP    HZ3  139   2.169   3.036   2.813
    9TRP    CE3  140   2.058   2.857   2.768
    9TRP    HE3  141   2.111   2.799   2.843
    9TRP    CD2  142   1.963   2.795   2.684
    9TRP      C  143   2.184   2.483   2.850
    9TRP      O  144   2.157   2.391   2.927
   10TYR      N  145   2.274   2.577   2.877
   10TYR      H  146   2.288   2.652   2.811
   10TYR     CA  147   2.355   2.588   2.999
   10TYR     HA  148   2.306   2.540   3.083
   10TYR     CB  149   2.493   2.523   2.976
   10TYR    HB1  150   2.563   2.561   3.052
   10TYR    HB2  151   2.531   2.555   2.879
   10TYR     CG  152   2.497   2.372   2.983
   10TYR    CD1  153   2.472   2.307   3.105
   10TYR    HD1  154   2.448   2.365   3.193
   10TYR    CE1  155   2.474   2.166   3.112
   10TYR    HE1  156   2.451   2.116   3.204
   10TYR     CZ  157   2.505   2.091   2.997
   10TYR     OH  158   2.501   1.955   3.002
   10TYR     HH  159   2.507   1.917   2.912
   10TYR    CE2  160   2.537   2.156   2.876
   10TYR    HE2  161   2.565   2.098   2.789
   10TYR    CD2  162   2.531   2.297   2.869
   10TYR    HD2  163   2.554   2.347   2.776
   10TYR      C  164   2.372   2.735   3.038
   10TYR    OC1  165   2.361   2.823   2.950
   10TYR    OC2  166   2.404   2.761   3.156
   11SOL     OW  167   0.239   0.636   0.114
   11SOL    HW1  168   0.307   0.576   0.144
   11SOL    HW2  169   0.158   0.599   0.148
   12SOL     OW  170   0.133   0.289   0.999
   12SOL    HW1  171   0.172   0.292   0.912
   12SOL    HW2  172   0.089   0.373   1.009
   13SOL     OW  173   0.091   0.418   0.544
   13SOL    HW1  174   0.132   0.377   0.621
   13SOL    HW2  175   0.096   0.350   0.477
   14SOL     OW  176   0.555   1.270   1.190
   14SOL    HW1  177   0.609   1.210   1.139
   14SOL    HW2  178   0.618   1.332   1.228
   15SOL     OW  179   1.548   1.533   0.690
   15SOL    HW1  180   1.495   1.507   0.766
   15SOL    HW2  181   1.603   1.456   0.672
   16SOL     OW  182   1.123   0.650   0.713
   16SOL    HW1  183   1.089   0.715   0.775
   16SOL    HW2  184   1.120   0.693   0.628
   17SOL     OW  185   1.658   0.617   0.342
   17SOL    HW1  186   1.700   0.531   0.346
   17SOL    HW2  187   1.637   0.638   0.433
   18SOL     OW  188   0.784   1.186   1.048
   18SOL    HW1  189   0.869   1.190   1.091
   18SOL    HW2  190   0.783   1.261   0.988
   19SOL     OW  191   0.814   0.667   1.746
   19SOL    HW1  192   0.766   0.726   1.803
   19SOL    HW2  193   0.873   0.619   1.805
   20SOL     OW  194   0.632   0.999   0.688
   20SOL    HW1  195   0.558   1.051   0.719
   20SOL    HW2  196   0.647   1.029   0.598
   21SOL     OW  197   0.702   1.111   1.815
   21SOL    HW1  198   0.645   1.184   1.840
   21SOL    HW2  199   0.695   1.106   1.720
   22SOL     OW  200   0.330   1.391   1.078
   22SOL    HW1  201   0.372   1.468   1.040
   22SOL    HW2  202   0.401   1.341   1.118
   23SOL     OW  203   1.414   1.592   1.341
   23SOL    HW1  204   1.458   1.509   1.321
   23SOL    HW2  205   1.358   1.572   1.416
   24SOL     OW  206   0.366   0.495   1.577
   24SOL    HW1  207   0.437   0.476   1.638
   24SOL    HW2  208   0.398   0.568   1.524
   25SOL     OW  209   1.603   0.428   0.733
   25SOL    HW1  210   1.615   0.392   0.821
   25SOL    HW2  211   1.509   0.436   0.723
   26SOL     OW  212   0.122   1.707   0.569
   26SOL    HW1  213   0.034   1.695   0.606
   26SOL    HW2  214   0.108   1.716   0.475
   27SOL     OW  215   1.186   1.313   1.726
   27SOL    HW1  216   1.181   1.308   1.822
   27SOL    HW2  217   1.116   1.256   1.695
   28SOL     OW  218   0.295   1.520   0.674
   28SOL    HW1  219   0.244   1.592   0.636
   28SOL    HW2  220   0.231   1.450   0.687
   29SOL     OW  221   0.264   1.046   0.931
   29SOL    HW1  222   0.321   1.097   0.874
   29SOL    HW2  223   0.279   0.955   0.905
   30SOL     OW  224   0.675   1.810   1.503
   30SOL    HW1  225   0.767   1.790   1.483
   30SOL    HW2  226   0.672   1.905   1.509
   31SOL     OW  227   0.536   0.921   0.214
   31SOL    HW1  228   0.624   0.932   0.179
   31SOL    HW2  229   0.483   0.892   0.140
   32SOL     OW  230   1.585   0.087   1.505
   32SOL    HW1  231   1.500   0.050   1.531
   32SOL    HW2  232   1.595   0.165   1.560
   33SOL     OW  233   0.104   0.686   0.539
   33SOL    HW1  234   0.053   0.721   0.612
   33SOL    HW2  235   0.092   0.591   0.545
   34SOL     OW  236   1.894   1.741   0.319
   34SOL    HW1  237   1.911   1.834   0.326
   34SOL    HW2  238   1.799   1.732   0.332
   35SOL     OW  239   4.910   1.604   0.183
   35SOL    HW1  240   4.973   1.661   0.227
   35SOL    HW2  241   4.897   1.531   0.244
   36SOL     OW  242   1.802   0.886   0.560
   36SOL    HW1  243   1.865   0.883   0.632
   36SOL    HW2  244   1.739   0.817   0.580
   37SOL     OW  245   1.646   1.107   0.490
   37SOL    HW1  246   1.671   1.182   0.544
   37SOL    HW2  247   1.705   1.037   0.518
   38SOL     OW  248   0.053   0.798   1.638
   38SOL    HW1  249   0.006   0.874   1.673
   38SOL    HW2  250   0.142   0.829   1.624
   39SOL     OW  251   0.533   1.424   0.738
   39SOL    HW1  252   0.446   1.458   0.721
   39SOL    HW2  253   0.582   1.440   0.658
   40SOL     OW  254   1.337   1.193   1.375
   40SOL    HW1  255   1.247   1.218   1.396
   40SOL    HW2  256   1.329   1.117   1.318
   41SOL     OW  257   0.780   4.889   0.618
   41SOL    HW1  258   0.859   4.923   0.660
   41SOL    HW2  259   0.730   4.967   0.595
   42SOL     OW  260   0.207   0.936   1.184
   42SOL    HW1  261   0.195   0.996   1.258
   42SOL    HW2  262   0.227   0.993   1.110
   43SOL     OW  263   1.560   1.022   0.248
   43SOL    HW1  264   1.583   1.056   0.335
   43SOL    HW2  265   1.644   1.001   0.208
   44SOL     OW  266   1.167   1.799   1.636
   44SOL    HW1  267   1.143   1.882   1.677
   44SOL    HW2  268   1.223   1.824   1.563
   45SOL     OW  269   0.324   0.292   1.881
   45SOL    HW1  270   0.237   0.298   1.842
   45SOL    HW2  271   0.378   0.254   1.811
   46SOL     OW  272   1.410   1.425   0.907
   46SOL    HW1  273   1.478   1.455   0.966
   46SOL    HW2  274   1.435   1.336   0.884
   47SOL     OW  275   1.735   1.735   0.721
   47SOL    HW1  276   1.744   1.804   0.655
   47SOL    HW2  277   1.666   1.678   0.687
   48SOL     OW  278   0.574   0.676   0.334
   48SOL    HW1  279   0.511   0.673   0.407
   48SOL    HW2  280   0.566   0.764   0.298
   49SOL     OW  281   1.350   0.297   0.943
   49SOL    HW1  282   1.446   0.293   0.948
   49SOL    HW2  283   1.332   0.354   0.869
   50SOL     OW  284   1.617   1.754   0.341
   50SOL    HW1  285   1.553   1.691   0.374
   50SOL    HW2  286   1.577   1.840   0.358
   51SOL     OW  287   0.749   0.597   1.476
   51SOL    HW1  288   0.793   0.615   1.559
   51SOL    HW2  289   0.819   0.562   1.420
   52SOL     OW  290   1.358   0.441   1.681
   52SOL    HW1  291   1.342   0.483   1.596
   52SOL    HW2  292   1.433   0.384   1.666
   53SOL     OW  293   0.920   0.881   1.587
   53SOL    HW1  294   0.950   0.952   1.644
   53SOL    HW2  295   0.884   0.816   1.647
   54SOL     OW  296   0.908   0.457   1.288
   54SOL    HW1  297   0.996   0.421   1.298
   54SOL    HW2  298   0.909   0.501   1.203
   55SOL     OW  299   1.131   0.749   0.421
   55SOL    HW1  300   1.200   0.807   0.389
   55SOL    HW2  301   1.115   0.688   0.348
   56SOL     OW  302   4.966   0.813   0.737
   56SOL    HW1  303   4.976   0.811   0.832
   56SOL    HW2  304   4.955   0.906   0.716
   57SOL     OW  305   0.093   1.909   1.536
   57SOL    HW1  306   0.049   1.860   1.466
   57SOL    HW2  307   0.170   1.856   1.557
   58SOL     OW  308   0.772   0.349   0.215
   58SOL    HW1  309   0.808   0.424   0.262
   58SOL    HW2  310   0.844   0.287   0.210
   59SOL     OW  311   1.721   0.598   1.893
   59SOL    HW1  312   1.750   0.689   1.892
   59SOL    HW2  313   1.721   0.572   1.801
   60SOL     OW  314   1.381   1.137   0.568
   60SOL    HW1  315   1.468   1.130   0.530
   60SOL    HW2  316   1.331   1.190   0.506
   61SOL     OW  317   0.534   0.170   0.808
   61SOL    HW1  318   0.562   0.201   0.895
   61SOL    HW2  319   0.485   0.090   0.826
   62SOL     OW  320   0.979   1.426   0.441
   62SOL    HW1  321   0.979   1.411   0.536
   62SOL    HW2  322   0.953   1.518   0.432
   63SOL     OW  323   0.398   1.839   0.924
   63SOL    HW1  324   0.306   1.841   0.899
   63SOL    HW2  325   0.422   1.747   0.919
   64SOL     OW  326   1.829   1.048   0.856
   64SOL    HW1  327   1.876   1.118   0.811
   64SOL    HW2  328   1.878   0.969   0.835
   65SOL     OW  329   1.264   1.536   1.563
   65SOL    HW1  330   1.236   1.614   1.610
   65SOL    HW2  331   1.233   1.463   1.617
   66SOL     OW  332   0.272   1.037   0.261
   66SOL    HW1  333   0.354   0.987   0.257
   66SOL    HW2  334   0.246   1.048   0.170
   67SOL     OW  335   1.409   0.756   0.751
   67SOL    HW1  336   1.402   0.794   0.839
   67SOL    HW2  337   1.370   0.669   0.759
   68SOL     OW  338   0.488   1.322   1.772
   68SOL    HW1  339   0.392   1.328   1.775
   68SOL    HW2  340   0.509   1.333   1.679
   69SOL     OW  341   1.125   1.767   0.323
   69SOL    HW1  342   1.038   1.732   0.342
   69SOL    HW2  343   1.161   1.706   0.258
   70SOL     OW  344   0.228   0.304   1.438
   70SOL    HW1  345   0.273   0.372   1.486
   70SOL    HW2  346   0.267   0.222   1.469
   71SOL     OW  347   1.559   1.444   0.027
   71SOL    HW1  348   1.649   1.441   0.061
   71SOL    HW2  349   1.528   1.354   0.033
   72SOL     OW  350   0.437   1.673   0.383
   72SOL    HW1  351   0.467   1.743   0.441
   72SOL    HW2  352   0.387   1.718   0.315
   73SOL     OW  353   1.365   0.082   0.444
   73SOL    HW1  354   1.459   0.083   0.431
   73SOL    HW2  355   1.328   0.087   0.355
   74SOL     OW  356   0.229   1.919   1.196
   74SOL    HW1  357   0.182   1.855   1.250
   74SOL    HW2  358   0.271   1.866   1.128
   75SOL     OW  359   0.778   1.666   0.965
   75SOL    HW1  360   0.740   1.743   1.008
   75SOL    HW2  361   0.766   1.683   0.872
   76SOL     OW  362   0.383   0.667   0.529
   76SOL    HW1  363   0.289   0.681   0.520
   76SOL    HW2  364   0.391   0.578   0.564
   77SOL     OW  365   1.597   0.293   1.687
   77SOL    HW1  366   1.668   0.357   1.685
   77SOL    HW2  367   1.599   0.257   1.776
   78SOL     OW  368   0.533   0.117   0.144
   78SOL    HW1  369   0.606   0.078   0.191
   78SOL    HW2  370   0.573   0.187   0.092
   79SOL     OW  371   0.825   0.124   1.803
   79SOL    HW1  372   0.841   0.197   1.862
   79SOL    HW2  373   0.800   0.165   1.720
   80SOL     OW  374   0.738   1.445   1.294
   80SOL    HW1  375   0.683   1.524   1.296
   80SOL    HW2  376   0.825   1.477   1.268
   81SOL     OW  377   1.274   0.552   1.443
   81SOL    HW1  378   1.202   0.615   1.442
   81SOL    HW2  379   1.239   0.474   1.400
   82SOL     OW  380   0.778   1.400   0.881
   82SOL    HW1  381   0.791   1.489   0.914
   82SOL    HW2  382   0.696   1.405   0.831
   83SOL     OW  383   1.015   0.448   0.884
   83SOL    HW1  384   1.056   0.517   0.831
   83SOL    HW2  385   0.961   0.496   0.947
   84SOL     OW  386   0.635   0.110   0.553
   84SOL    HW1  387   0.608   0.136   0.642
   84SOL    HW2  388   0.605   0.182   0.498
   85SOL     OW  389   1.470   1.187   0.052
   85SOL    HW1  390   1.502   1.128   0.120
   85SOL    HW2  391   1.437   1.128  -0.016
   86SOL     OW  392   0.267   0.075   0.157
   86SOL    HW1  393   0.245   0.128   0.234
   86SOL    HW2  394   0.362   0.081   0.150
   87SOL     OW  395   0.982   0.204   0.571
   87SOL    HW1  396   0.919   0.270   0.597
   87SOL    HW2  397   1.060   0.253   0.547
   88SOL     OW  398   1.078   0.733   1.418
   88SOL    HW1  399   1.028   0.784   1.483
   88SOL    HW2  400   1.059   0.775   1.335
   89SOL     OW  401   1.188   1.513   0.761
   89SOL    HW1  402   1.262   1.483   0.814
   89SOL    HW2  403   1.218   1.596   0.724
   90SOL     OW  404   0.420   1.169   0.739
   90SOL    HW1  405   0.461   1.254   0.755
   90SOL    HW2  406   0.385   1.175   0.650
   91SOL     OW  407   1.256   1.832   0.551
   91SOL    HW1  408   1.321   1.898   0.525
   91SOL    HW2  409   1.208   1.813   0.470
   92SOL     OW  410   1.051   0.606   0.195
   92SOL    HW1  411   0.968   0.596   0.242
   92SOL    HW2  412   1.030   0.663   0.122
   93SOL     OW  413   0.057   0.476   1.311
   93SOL    HW1  414   0.004   0.524   1.375
   93SOL    HW2  415   0.112   0.418   1.364
   94SOL     OW  416   0.578   0.180   1.098
   94SOL    HW1  417   0.624   0.231   1.165
   94SOL    HW2  418   0.486   0.184   1.125
   95SOL     OW  419   0.822   0.394   0.697
   95SOL    HW1  420   0.895   0.402   0.757
   95SOL    HW2  421   0.746   0.425   0.746
   96SOL     OW  422   0.998   0.003   0.751
   96SOL    HW1  423   1.031   0.052   0.826
   96SOL    HW2  424   0.997   0.066   0.679
   97SOL     OW  425   1.501   1.183   0.833
   97SOL    HW1  426   1.528   1.113   0.892
   97SOL    HW2  427   1.450   1.138   0.765
   98SOL     OW  428   1.430   0.592   1.049
   98SOL    HW1  429   1.348   0.544   1.061
   98SOL    HW2  430   1.402   0.683   1.035
   99SOL     OW  431   1.880   0.775   0.317
   99SOL    HW1  432   1.870   0.824   0.399
   99SOL    HW2  433   1.801   0.721   0.311
  100SOL     OW  434   0.441   1.449   0.120
  100SOL    HW1  435   0.385   1.505   0.066
  100SOL    HW2  436   0.460   1.373   0.065
  101SOL     OW  437   1.695   1.303   0.678
  101SOL    HW1  438   1.787   1.288   0.704
  101SOL    HW2  439   1.645   1.259   0.747
  102SOL     OW  440   1.474   0.547   0.152
  102SOL    HW1  441   1.535   0.576   0.221
  102SOL    HW2  442   1.440   0.629   0.115
  103SOL     OW  443   0.559   0.320   0.394
  103SOL    HW1  444   0.639   0.323   0.342
  103SOL    HW2  445   0.490   0.348   0.334
  104SOL     OW  446   1.675   1.262   1.525
  104SOL    HW1  447   1.596   1.258   1.579
  104SOL    HW2  448   1.725   1.335   1.561
  105SOL     OW  449   1.067   1.220   1.412
  105SOL    HW1  450   0.980   1.219   1.450
  105SOL    HW2  451   1.052   1.216   1.317
  106SOL     OW  452   1.606   1.607   1.734
  106SOL    HW1  453   1.589   1.665   1.660
  106SOL    HW2  454   1.682   1.555   1.706
  107SOL     OW  455   1.043   1.212   1.138
  107SOL    HW1  456   1.101   1.143   1.106
  107SOL    HW2  457   1.090   1.293   1.118
  108SOL     OW  458   1.611   1.000   1.011
  108SOL    HW1  459   1.635   0.981   1.102
  108SOL    HW2  460   1.694   1.017   0.967
  109SOL     OW  461   0.894   0.007   1.405
  109SOL    HW1  462   0.962   0.053   1.455
  109SOL    HW2  463   0.922   0.016   1.313
  110SOL     OW  464   0.978   1.085   1.769
  110SOL    HW1  465   1.026   1.057   1.847
  110SOL    HW2  466   0.890   1.104   1.801
  111SOL     OW  467   0.607   1.096   0.430
  111SOL    HW1  468   0.522   1.137   0.446
  111SOL    HW2  469   0.590   1.032   0.360
  112SOL     OW  470   0.436   0.780   1.214
  112SOL    HW1  471   0.362   0.840   1.204
  112SOL    HW2  472   0.398   0.693   1.204
  113SOL     OW  473   1.153   0.328   1.334
  113SOL    HW1  474   1.217   0.280   1.281
  113SOL    HW2  475   1.124   0.266   1.400
  114SOL     OW  476   0.104   1.701   1.331
  114SOL    HW1  477   0.183   1.648   1.341
  114SOL    HW2  478   0.068   1.676   1.246
  115SOL     OW  479   0.352   1.192   0.473
  115SOL    HW1  480   0.311   1.134   0.409
  115SOL    HW2  481   0.331   1.280   0.443
  116SOL     OW  482   0.623   0.512   0.858
  116SOL    HW1  483   0.537   0.507   0.900
  116SOL    HW2  484   0.620   0.592   0.806
  117SOL     OW  485   1.180   1.246   0.387
  117SOL    HW1  486   1.125   1.324   0.399
  117SOL    HW2  487   1.131   1.176   0.430
  118SOL     OW  488   1.192   1.431   1.082
  118SOL    HW1  489   1.200   1.522   1.110
  118SOL    HW2  490   1.263   1.418   1.020
  119SOL     OW  491   1.630   0.676   0.609
  119SOL    HW1  492   1.640   0.593   0.656
  119SOL    HW2  493   1.554   0.718   0.650
  120SOL     OW  494   0.345   1.575   1.380
  120SOL    HW1  495   0.351   1.480   1.390
  120SOL    HW2  496   0.427   1.600   1.337
  121SOL     OW  497   0.321   0.841   1.619
  121SOL    HW1  498   0.359   0.846   1.706
  121SOL    HW2  499   0.388   0.798   1.566
  122SOL     OW  500   1.637   0.842   1.675
  122SOL    HW1  501   1.695   0.850   1.751
  122SOL    HW2  502   1.681   0.889   1.605
  123SOL     OW  503   1.090   0.019   1.792
  123SOL    HW1  504   1.004   0.060   1.802
  123SOL    HW2  505   1.073  -0.075   1.806
  124SOL     OW  506   0.486   0.155   1.699
  124SOL    HW1  507   0.567   0.176   1.653
  124SOL    HW2  508   0.430   0.115   1.632
  125SOL     OW  509   0.710   0.784   1.180
  125SOL    HW1  510   0.738   0.853   1.240
  125SOL    HW2  511   0.614   0.789   1.181
  126SOL     OW  512   1.385   0.856   1.004
  126SOL    HW1  513   1.467   0.906   1.002
  126SOL    HW2  514   1.333   0.898   1.072
  127SOL     OW  515   1.244   0.419   0.246
  127SOL    HW1  516   1.324   0.462   0.215
  127SOL    HW2  517   1.174   0.480   0.224
  128SOL     OW  518   0.321   0.204   1.187
  128SOL    HW1  519   0.301   0.263   1.260
  128SOL    HW2  520   0.258   0.229   1.119
  129SOL     OW  521   4.943   1.232   1.274
  129SOL    HW1  522   4.907   1.319   1.293
  129SOL    HW2  523   4.997   1.245   1.196
  130SOL     OW  524   0.825   0.585   1.038
  130SOL    HW1  525   0.785   0.652   1.094
  130SOL    HW2  526   0.753   0.551   0.985
  131SOL     OW  527   1.815   0.857   1.883
  131SOL    HW1  528   1.882   0.895   1.827
  131SOL    HW2  529   1.812   0.914   1.960
  132SOL     OW  530   0.224   0.029   0.692
  132SOL    HW1  531   0.286  -0.015   0.751
  132SOL    HW2  532   0.245  -0.007   0.605
  133SOL     OW  533   1.770   0.368   0.334
  133SOL    HW1  534   1.773   0.330   0.422
  133SOL    HW2  535   1.695   0.327   0.292
  134SOL     OW  536   0.993   0.774   0.928
  134SOL    HW1  537   0.928   0.712   0.962
  134SOL    HW2  538   0.943   0.850   0.900
  135SOL     OW  539   0.999   1.653   1.799
  135SOL    HW1  540   0.909   1.661   1.767
  135SOL    HW2  541   1.052   1.699   1.734
  136SOL     OW  542   1.824   1.463   1.645
  136SOL    HW1  543   1.857   1.547   1.612
  136SOL    HW2  544   1.903   1.412   1.665
  137SOL     OW  545   0.400   0.907   1.878
  137SOL    HW1  546   0.492   0.879   1.879
  137SOL    HW2  547   0.376   0.911   1.970
  138SOL     OW  548   1.556   0.282   0.197
  138SOL    HW1  549   1.565   0.224   0.122
  138SOL    HW2  550   1.514   0.361   0.161
  139SOL     OW  551   1.413   0.779   5.027
  139SOL    HW1  552   1.495   0.822   5.002
  139SOL    HW2  553   1.384   0.733   4.948
  140SOL     OW  554   0.984   1.341   0.703
  140SOL    HW1  555   0.918   1.354   0.771
  140SOL    HW2  556   1.058   1.396   0.731
  141SOL     OW  557   0.257   0.773   0.831
  141SOL    HW1  558   0.179   0.774   0.887
  141SOL    HW2  559   0.224   0.793   0.744
  142SOL     OW  560   0.347   0.526   0.917
  142SOL    HW1  561   0.328   0.615   0.887
  142SOL    HW2  562   0.307   0.470   0.851
  143SOL     OW  563   1.087   0.376   1.701
  143SOL    HW1  564   1.179   0.400   1.701
  143SOL    HW2  565   1.047   0.433   1.766
  144SOL     OW  566   1.078   0.157   1.544
  144SOL    HW1  567   1.113   0.095   1.607
  144SOL    HW2  568   1.070   0.239   1.593
  145SOL     OW  569   0.045   1.334   0.280
  145SOL    HW1  570   0.131   1.365   0.310
  145SOL    HW2  571   0.047   1.350   0.185
  146SOL     OW  572   0.127   1.829   0.892
  146SOL    HW1  573   0.082   1.779   0.960
  146SOL    HW2  574   0.086   1.802   0.811
  147SOL     OW  575   0.496   1.583   0.960
  147SOL    HW1  576   0.585   1.595   0.995
  147SOL    HW2  577   0.508   1.529   0.882
  148SOL     OW  578   1.026   0.878   1.191
  148SOL    HW1  579   0.944   0.919   1.219
  148SOL    HW2  580   1.009   0.850   1.101
  149SOL     OW  581   4.984   0.514   1.055
  149SOL    HW1  582   4.997   0.502   1.149
  149SOL    HW2  583   4.898   0.473   1.038
  150SOL     OW  584   0.162   0.575   1.751
  150SOL    HW1  585   0.234   0.554   1.691
  150SOL    HW2  586   0.120   0.652   1.714
  151SOL     OW  587   1.383   0.921   1.666
  151SOL    HW1  588   1.390   1.016   1.657
  151SOL    HW2  589   1.474   0.891   1.672
  152SOL     OW  590   0.830   0.577   0.356
  152SOL    HW1  591   0.851   0.583   0.449
  152SOL    HW2  592   0.743   0.617   0.347
  153SOL     OW  593   1.672   0.648   1.158
  153SOL    HW1  594   1.658   0.739   1.187
  153SOL    HW2  595   1.591   0.625   1.114
  154SOL     OW  596   0.116   1.592   1.744
  154SOL    HW1  597   0.183   1.646   1.702
  154SOL    HW2  598   0.159   1.507   1.756
  155SOL     OW  599   0.667   0.336   1.323
  155SOL    HW1  600   0.755   0.371   1.309
  155SOL    HW2  601   0.615   0.413   1.348
  156SOL     OW  602   0.935   1.755   1.448
  156SOL    HW1  603   1.015   1.709   1.471
  156SOL    HW2  604   0.960   1.848   1.449
  157SOL     OW  605   0.445   0.477   0.191
  157SOL    HW1  606   0.499   0.544   0.234
  157SOL    HW2  607   0.499   0.443   0.121
  158SOL     OW  608   0.163   1.122   1.398
  158SOL    HW1  609   0.145   1.115   1.492
  158SOL    HW2  610   0.081   1.156   1.361
  159SOL     OW  611   1.277   0.966   1.232
  159SOL    HW1  612   1.186   0.937   1.226
  159SOL    HW2  613   1.316   0.906   1.296
  160SOL     OW  614   1.308   0.896   0.251
  160SOL    HW1  615   1.386   0.946   0.274
  160SOL    HW2  616   1.333   0.847   0.173
  161SOL     OW  617   1.692   1.754   1.152
  161SOL    HW1  618   1.728   1.697   1.220
  161SOL    HW2  619   1.750   1.830   1.151
  162SOL     OW  620   1.270   1.697   1.128
  162SOL    HW1  621   1.316   1.669   1.207
  162SOL    HW2  622   1.339   1.726   1.069
  163SOL     OW  623   0.103   1.242   1.054
  163SOL    HW1  624   0.173   1.306   1.064
  163SOL    HW2  625   0.143   1.170   1.004
  164SOL     OW  626   0.732   1.658   1.728
  164SOL    HW1  627   0.680   1.688   1.803
  164SOL    HW2  628   0.698   1.709   1.655
  165SOL     OW  629   0.941   0.134   0.170
  165SOL    HW1  630   0.876   0.079   0.214
  165SOL    HW2  631   0.936   0.107   0.078
  166SOL     OW  632   1.634   0.072   0.433
  166SOL    HW1  633   1.686   0.131   0.488
  166SOL    HW2  634   1.685   0.063   0.352
  167SOL     OW  635   1.422   1.619   0.467
  167SOL    HW1  636   1.461   1.581   0.546
  167SOL    HW2  637   1.356   1.680   0.500
  168SOL     OW  638   0.058   1.934   1.810
  168SOL    HW1  639   0.133   1.885   1.843
  168SOL    HW2  640   0.063   1.926   1.715
  169SOL     OW  641   1.217   0.947   0.669
  169SOL    HW1  642   1.276   0.875   0.691
  169SOL    HW2  643   1.275   1.015   0.633
  170SOL     OW  644   0.794   1.240   1.473
  170SOL    HW1  645   0.797   1.286   1.557
  170SOL    HW2  646   0.767   1.306   1.410
  171SOL     OW  647   0.660   1.622   0.223
  171SOL    HW1  648   0.579   1.650   0.265
  171SOL    HW2  649   0.634   1.549   0.167
  172SOL     OW  650   1.615   1.732   1.478
  172SOL    HW1  651   1.694   1.690   1.445
  172SOL    HW2  652   1.544   1.694   1.426
  173SOL     OW  653   1.848   0.110   1.016
  173SOL    HW1  654   1.921   0.158   0.979
  173SOL    HW2  655   1.820   0.162   1.092
  174SOL     OW  656   0.241   0.299   0.746
  174SOL    HW1  657   0.237   0.205   0.727
  174SOL    HW2  658   0.322   0.328   0.704
  175SOL     OW  659   1.213   1.606   0.127
  175SOL    HW1  660   1.279   1.627   0.061
  175SOL    HW2  661   1.222   1.511   0.140
  176SOL     OW  662   0.813   0.978   1.352
  176SOL    HW1  663   0.847   0.938   1.432
  176SOL    HW2  664   0.794   1.068   1.377
  177SOL     OW  665   0.936   0.941   0.349
  177SOL    HW1  666   0.947   1.006   0.418
  177SOL    HW2  667   0.992   0.868   0.375
  178SOL     OW  668   1.411   1.657   4.945
  178SOL    HW1  669   1.447   1.677   4.858
  178SOL    HW2  670   1.467   1.588   4.979
  179SOL     OW  671   0.379   1.303   1.404
  179SOL    HW1  672   0.440   1.277   1.335
  179SOL    HW2  673   0.310   1.238   1.401
  180SOL     OW  674   1.546   1.355   1.292
  180SOL    HW1  675   1.615   1.324   1.350
  180SOL    HW2  676   1.472   1.296   1.309
  181SOL     OW  677   1.015   1.100   0.558
  181SOL    HW1  678   0.997   1.175   0.617
  181SOL    HW2  679   1.068   1.041   0.610
  182SOL     OW  680   1.094   0.185   0.944
  182SOL    HW1  681   1.052   0.269   0.925
  182SOL    HW2  682   1.187   0.204   0.942
  183SOL     OW  683   0.632   1.503   0.501
  183SOL    HW1  684   0.563   1.552   0.455
  183SOL    HW2  685   0.675   1.451   0.433
  184SOL     OW  686   1.723   0.502   1.385
  184SOL    HW1  687   1.691   0.565   1.320
  184SOL    HW2  688   1.710   0.417   1.343
  185SOL     OW  689   0.296   1.429   0.349
  185SOL    HW1  690   0.348   1.429   0.269
  185SOL    HW2  691   0.323   1.509   0.395
  186SOL     OW  692   0.235   1.082   1.710
  186SOL    HW1  693   0.271   1.049   1.792
  186SOL    HW2  694   0.265   1.019   1.644
  187SOL     OW  695   0.716   0.169   1.542
  187SOL    HW1  696   0.772   0.106   1.496
  187SOL    HW2  697   0.694   0.235   1.477
  188SOL     OW  698   0.108   0.360   4.983
  188SOL    HW1  699   0.091   0.396   5.070
  188SOL    HW2  700   0.052   0.411   4.925
  189SOL     OW  701   1.401   0.802   1.413
  189SOL    HW1  702   1.385   0.837   1.500
  189SOL    HW2  703   1.373   0.711   1.418
  190SOL     OW  704   0.095   0.245   0.332
  190SOL    HW1  705   0.070   0.320   0.278
  190SOL    HW2  706   0.041   0.173   0.300
  191SOL     OW  707   1.253   1.332   0.135
  191SOL    HW1  708   1.336   1.287   0.119
  191SOL    HW2  709   1.225   1.301   0.221
  192SOL     OW  710   0.503   0.707   1.469
  192SOL    HW1  711   0.593   0.675   1.470
  192SOL    HW2  712   0.490   0.740   1.379
  193SOL     OW  713   1.485   1.768   0.974
  193SOL    HW1  714   1.554   1.773   1.039
  193SOL    HW2  715   1.530   1.781   0.890
  194SOL     OW  716   0.576   0.493   1.750
  194SOL    HW1  717   0.541   0.521   1.835
  194SOL    HW2  718   0.654   0.547   1.737
  195SOL     OW  719   1.420   1.202   1.636
  195SOL    HW1  720   1.345   1.249   1.672
  195SOL    HW2  721   1.402   1.198   1.542
  196SOL     OW  722   0.294   1.738   1.597
  196SOL    HW1  723   0.370   1.785   1.632
  196SOL    HW2  724   0.329   1.685   1.526
  197SOL     OW  725   1.627   0.892   1.275
  197SOL    HW1  726   1.682   0.932   1.342
  197SOL    HW2  727   1.547   0.867   1.322
  198SOL     OW  728   1.233   0.315   0.505
  198SOL    HW1  729   1.276   0.231   0.495
  198SOL    HW2  730   1.237   0.355   0.418
  199SOL     OW  731   0.594   0.727   0.702
  199SOL    HW1  732   0.617   0.820   0.706
  199SOL    HW2  733   0.519   0.723   0.643
  200SOL     OW  734   1.782   0.497   1.649
  200SOL    HW1  735   1.858   0.555   1.649
  200SOL    HW2  736   1.748   0.503   1.560
  201SOL     OW  737   1.760   1.004   1.492
  201SOL    HW1  738   1.733   1.096   1.492
  201SOL    HW2  739   1.845   1.004   1.537
  202SOL     OW  740   0.751   1.231   0.074
  202SOL    HW1  741   0.752   1.272   0.160
  202SOL    HW2  742   0.837   1.251   0.037
  203SOL     OW  743   0.617   1.859   1.086
  203SOL    HW1  744   0.613   1.949   1.118
  203SOL    HW2  745   0.543   1.852   1.026
  204SOL     OW  746   0.830   0.976   0.876
  204SOL    HW1  747   0.806   1.045   0.939
  204SOL    HW2  748   0.765   0.983   0.806
  205SOL     OW  749   1.125   1.006   0.062
  205SOL    HW1  750   1.170   0.993   0.145
  205SOL    HW2  751   1.076   0.925   0.048
  206SOL     OW  752   1.839   1.551   0.902
  206SOL    HW1  753   1.764   1.522   0.954
  206SOL    HW2  754   1.800   1.604   0.833
  207SOL     OW  755   0.211   1.337   1.794
  207SOL    HW1  756   0.152   1.329   1.869
  207SOL    HW2  757   0.209   1.251   1.753
  208SOL     OW  758   0.108   1.330   0.707
  208SOL    HW1  759   0.038   1.337   0.642
  208SOL    HW2  760   0.110   1.238   0.731
  209SOL     OW  761   0.797   1.390   1.702
  209SOL    HW1  762   0.839   1.380   1.787
  209SOL    HW2  763   0.768   1.482   1.700
  210SOL     OW  764   1.818   0.306   1.202
  210SOL    HW1  765   1.868   0.276   1.278
  210SOL    HW2  766   1.865   0.385   1.172
  211SOL     OW  767   0.455   0.417   0.628
  211SOL    HW1  768   0.525   0.415   0.693
  211SOL    HW2  769   0.496   0.383   0.548
  212SOL     OW  770   1.620   1.493   1.065
  212SOL    HW1  771   1.607   1.438   1.142
  212SOL    HW2  772   1.632   1.582   1.100
  213SOL     OW  773   0.313   0.540   1.192
  213SOL    HW1  774   0.222   0.523   1.214
  213SOL    HW2  775   0.319   0.521   1.098
  214SOL     OW  776   0.727   1.681   0.700
  214SOL    HW1  777   0.751   1.760   0.651
  214SOL    HW2  778   0.702   1.618   0.632
  215SOL     OW  779   1.342   0.185   1.194
  215SOL    HW1  780   1.430   0.150   1.202
  215SOL    HW2  781   1.340   0.227   1.108
  216SOL     OW  782   1.017   0.026   1.164
  216SOL    HW1  783   1.102  -0.001   1.200
  216SOL    HW2  784   1.040   0.079   1.087
  217SOL     OW  785   0.756   1.313   0.332
  217SOL    HW1  786   0.841   1.336   0.369
  217SOL    HW2  787   0.728   1.235   0.381
  218SOL     OW  788   0.585   1.672   1.288
  218SOL    HW1  789   0.610   1.720   1.366
  218SOL    HW2  790   0.597   1.735   1.216
  219SOL     OW  791   1.347   4.946   0.089
  219SOL    HW1  792   1.297   5.016   0.131
  219SOL    HW2  793   1.281   4.894   0.044
  220SOL     OW  794   1.319   0.460   0.718
  220SOL    HW1  795   1.248   0.525   0.719
  220SOL    HW2  796   1.298   0.403   0.645
  221SOL     OW  797   1.624   0.287   0.971
  221SOL    HW1  798   1.667   0.204   0.954
  221SOL    HW2  799   1.661   0.317   1.054
  222SOL     OW  800   0.001   1.054   0.317
  222SOL    HW1  801   0.095   1.039   0.311
  222SOL    HW2  802  -0.009   1.149   0.310
  223SOL     OW  803   0.875   1.681   0.387
  223SOL    HW1  804   0.843   1.760   0.432
  223SOL    HW2  805   0.806   1.661   0.323
  224SOL     OW  806   0.167   0.620   2.023
  224SOL    HW1  807   0.077   0.614   2.056
  224SOL    HW2  808   0.158   0.613   1.928
  225SOL     OW  809   0.281   0.154   2.794
  225SOL    HW1  810   0.276   0.202   2.877
  225SOL    HW2  811   0.370   0.169   2.762
  226SOL     OW  812   4.939   0.377   2.300
  226SOL    HW1  813   5.003   0.411   2.362
  226SOL    HW2  814   4.974   0.291   2.275
  227SOL     OW  815   0.629   1.295   3.128
  227SOL    HW1  816   0.688   1.278   3.201
  227SOL    HW2  817   0.543   1.265   3.157
  228SOL     OW  818   1.495   1.524   2.528
  228SOL    HW1  819   1.470   1.523   2.621
  228SOL    HW2  820   1.553   1.600   2.520
  229SOL     OW  821   1.198   0.706   2.507
  229SOL    HW1  822   1.242   0.621   2.515
  229SOL    HW2  823   1.138   0.696   2.433
  230SOL     OW  824   1.694   0.560   2.158
  230SOL    HW1  825   1.751   0.629   2.192
  230SOL    HW2  826   1.700   0.569   2.063
  231SOL     OW  827   0.785   1.200   2.931
  231SOL    HW1  828   0.731   1.237   3.001
  231SOL    HW2  829   0.738   1.121   2.903
  232SOL     OW  830   0.852   0.666   3.661
  232SOL    HW1  831   0.865   0.733   3.595
  232SOL    HW2  832   0.773   0.620   3.635
  233SOL     OW  833   0.696   0.932   2.512
  233SOL    HW1  834   0.667   0.841   2.508
  233SOL    HW2  835   0.622   0.979   2.551
  234SOL     OW  836   0.665   1.196   3.767
  234SOL    HW1  837   0.737   1.258   3.782
  234SOL    HW2  838   0.644   1.204   3.674
  235SOL     OW  839   0.203   1.421   2.965
  235SOL    HW1  840   0.278   1.452   2.914
  235SOL    HW2  841   0.150   1.372   2.902
  236SOL     OW  842   1.383   1.649   3.162
  236SOL    HW1  843   1.328   1.650   3.240
  236SOL    HW2  844   1.473   1.642   3.196
  237SOL     OW  845   0.482   0.408   3.320
  237SOL    HW1  846   0.394   0.371   3.312
  237SOL    HW2  847   0.540   0.332   3.317
  238SOL     OW  848   1.612   0.469   2.483
  238SOL    HW1  849   1.704   0.497   2.477
  238SOL    HW2  850   1.616   0.374   2.479
  239SOL     OW  851   0.204   1.615   2.399
  239SOL    HW1  852   0.249   1.538   2.433
  239SOL    HW2  853   0.120   1.616   2.444
  240SOL     OW  854   1.172   1.394   3.475
  240SOL    HW1  855   1.115   1.337   3.526
  240SOL    HW2  856   1.188   1.346   3.394
  241SOL     OW  857   0.343   1.393   2.480
  241SOL    HW1  858   0.426   1.398   2.527
  241SOL    HW2  859   0.368   1.371   2.390
  242SOL     OW  860   0.276   1.114   2.824
  242SOL    HW1  861   0.280   1.107   2.919
  242SOL    HW2  862   0.200   1.169   2.807
  243SOL     OW  863   0.738   1.601   3.282
  243SOL    HW1  864   0.689   1.578   3.361
  243SOL    HW2  865   0.674   1.593   3.211
  244SOL     OW  866   0.676   0.843   1.902
  244SOL    HW1  867   0.694   0.937   1.900
  244SOL    HW2  868   0.669   0.821   1.995
  245SOL     OW  869   1.597   0.036   3.313
  245SOL    HW1  870   1.652  -0.027   3.359
  245SOL    HW2  871   1.598   0.114   3.368
  246SOL     OW  872   0.113   0.492   2.479
  246SOL    HW1  873   0.176   0.554   2.443
  246SOL    HW2  874   0.042   0.546   2.513
  247SOL     OW  875   1.891   1.714   2.241
  247SOL    HW1  876   1.974   1.734   2.283
  247SOL    HW2  877   1.916   1.671   2.159
  248SOL     OW  878   4.977   1.595   1.985
  248SOL    HW1  879   4.958   1.681   2.020
  248SOL    HW2  880   5.024   1.612   1.903
  249SOL     OW  881   1.740   0.885   2.454
  249SOL    HW1  882   1.679   0.944   2.410
  249SOL    HW2  883   1.778   0.833   2.383
  250SOL     OW  884   1.578   1.049   2.302
  250SOL    HW1  885   1.631   1.125   2.281
  250SOL    HW2  886   1.557   1.010   2.218
  251SOL     OW  887   0.065   0.767   3.495
  251SOL    HW1  888   0.053   0.834   3.563
  251SOL    HW2  889  -0.017   0.766   3.447
  252SOL     OW  890   0.582   1.420   2.620
  252SOL    HW1  891   0.634   1.351   2.661
  252SOL    HW2  892   0.647   1.483   2.587
  253SOL     OW  893   1.230   1.228   3.257
  253SOL    HW1  894   1.300   1.211   3.320
  253SOL    HW2  895   1.248   1.167   3.185
  254SOL     OW  896   0.857   0.051   2.442
  254SOL    HW1  897   0.764   0.028   2.445
  254SOL    HW2  898   0.877   0.057   2.349
  255SOL     OW  899   0.196   1.065   3.101
  255SOL    HW1  900   0.145   1.090   3.178
  255SOL    HW2  901   0.152   0.987   3.067
  256SOL     OW  902   1.516   0.967   2.052
  256SOL    HW1  903   1.544   1.037   1.993
  256SOL    HW2  904   1.456   0.914   1.999
  257SOL     OW  905   1.213   1.815   3.595
  257SOL    HW1  906   1.288   1.830   3.653
  257SOL    HW2  907   1.146   1.876   3.628
  258SOL     OW  908   0.243   0.292   3.606
  258SOL    HW1  909   0.266   0.226   3.540
  258SOL    HW2  910   0.238   0.373   3.556
  259SOL     OW  911   1.431   1.417   2.791
  259SOL    HW1  912   1.514   1.412   2.839
  259SOL    HW2  913   1.428   1.336   2.740
  260SOL     OW  914   1.693   1.704   2.428
  260SOL    HW1  915   1.662   1.795   2.431
  260SOL    HW2  916   1.764   1.706   2.364
  261SOL     OW  917   0.591   0.691   2.126
  261SOL    HW1  918   0.530   0.719   2.194
  261SOL    HW2  919   0.537   0.637   2.068
  262SOL     OW  920   1.300   0.482   2.786
  262SOL    HW1  921   1.314   0.471   2.692
  262SOL    HW2  922   1.218   0.437   2.803
  263SOL     OW  923   1.555   1.593   2.151
  263SOL    HW1  924   1.620   1.625   2.213
  263SOL    HW2  925   1.475   1.584   2.202
  264SOL     OW  926   0.779   0.588   3.342
  264SOL    HW1  927   0.870   0.598   3.316
  264SOL    HW2  928   0.738   0.671   3.317
  265SOL     OW  929   1.524   0.457   3.407
  265SOL    HW1  930   1.569   0.511   3.473
  265SOL    HW2  931   1.525   0.369   3.444
  266SOL     OW  932   0.870   0.892   3.484
  266SOL    HW1  933   0.898   0.930   3.400
  266SOL    HW2  934   0.933   0.927   3.548
  267SOL     OW  935   1.010   0.413   3.055
  267SOL    HW1  936   0.916   0.406   3.069
  267SOL    HW2  937   1.022   0.394   2.962
  268SOL     OW  938   1.008   0.676   2.298
  268SOL    HW1  939   0.999   0.766   2.268
  268SOL    HW2  940   1.053   0.632   2.226
  269SOL     OW  941   4.969   0.878   2.642
  269SOL    HW1  942   5.063   0.878   2.659
  269SOL    HW2  943   4.953   0.796   2.595
  270SOL     OW  944   0.153   1.985   3.592
  270SOL    HW1  945   0.213   1.912   3.577
  270SOL    HW2  946   0.162   2.039   3.513
  271SOL     OW  947   0.853   0.287   2.030
  271SOL    HW1  948   0.816   0.351   2.091
  271SOL    HW2  949   0.853   0.205   2.080
  272SOL     OW  950   1.675   0.576   3.606
  272SOL    HW1  951   1.602   0.564   3.667
  272SOL    HW2  952   1.692   0.670   3.606
  273SOL     OW  953   1.333   1.123   2.416
  273SOL    HW1  954   1.301   1.051   2.470
  273SOL    HW2  955   1.411   1.088   2.372
  274SOL     OW  956   0.528   0.270   2.719
  274SOL    HW1  957   0.523   0.365   2.719
  274SOL    HW2  958   0.555   0.246   2.631
  275SOL     OW  959   1.007   1.426   2.425
  275SOL    HW1  960   1.047   1.428   2.512
  275SOL    HW2  961   0.923   1.471   2.436
  276SOL     OW  962   0.342   1.765   2.731
  276SOL    HW1  963   0.431   1.791   2.753
  276SOL    HW2  964   0.330   1.792   2.640
  277SOL     OW  965   1.766   1.004   2.717
  277SOL    HW1  966   1.834   0.938   2.729
  277SOL    HW2  967   1.736   0.992   2.627
  278SOL     OW  968   1.227   1.647   3.381
  278SOL    HW1  969   1.212   1.561   3.421
  278SOL    HW2  970   1.226   1.708   3.456
  279SOL     OW  971   0.334   0.931   2.152
  279SOL    HW1  972   0.247   0.973   2.147
  279SOL    HW2  973   0.318   0.850   2.200
  280SOL     OW  974   1.527   0.779   2.604
  280SOL    HW1  975   1.468   0.755   2.533
  280SOL    HW2  976   1.609   0.803   2.561
  281SOL     OW  977   0.340   1.198   3.488
  281SOL    HW1  978   0.430   1.223   3.505
  281SOL    HW2  979   0.297   1.201   3.573
  282SOL     OW  980   0.967   1.837   2.181
  282SOL    HW1  981   1.040   1.813   2.124
  282SOL    HW2  982   0.976   1.931   2.193
  283SOL     OW  983   0.240   0.284   3.279
  283SOL    HW1  984   0.263   0.205   3.329
  283SOL    HW2  985   0.145   0.285   3.280
  284SOL     OW  986   1.627   1.423   1.944
  284SOL    HW1  987   1.600   1.473   2.021
  284SOL    HW2  988   1.613   1.484   1.870
  285SOL     OW  989   0.345   1.658   2.166
  285SOL    HW1  990   0.283   1.642   2.237
  285SOL    HW2  991   0.428   1.626   2.199
  286SOL     OW  992   1.340   0.102   2.172
  286SOL    HW1  993   1.310   0.183   2.212
  286SOL    HW2  994   1.357   0.043   2.246
  287SOL     OW  995   0.256   1.761   3.246
  287SOL    HW1  996   0.298   1.676   3.227
  287SOL    HW2  997   0.163   1.744   3.234
  288SOL     OW  998   0.852   1.733   2.763
  288SOL    HW1  999   0.885   1.698   2.846
  288SOL    HW2 1000   0.922   1.789   2.731
  289SOL     OW 1001   0.397   0.702   2.328
  289SOL    HW1 1002   0.461   0.714   2.398
  289SOL    HW2 1003   0.384   0.607   2.322
  290SOL     OW 1004   1.615   0.219   3.516
  290SOL    HW1 1005   1.583   0.206   3.606
  290SOL    HW2 1006   1.704   0.251   3.526
  291SOL     OW 1007   0.576   0.100   1.955
  291SOL    HW1 1008   0.536   0.123   1.871
  291SOL    HW2 1009   0.669   0.091   1.935
  292SOL     OW 1010   0.797   0.292   3.526
  292SOL    HW1 1011   0.743   0.364   3.559
  292SOL    HW2 1012   0.748   0.258   3.451
  293SOL     OW 1013   0.879   1.587   3.005
  293SOL    HW1 1014   0.921   1.525   3.065
  293SOL    HW2 1015   0.786   1.581   3.026
  294SOL     OW 1016   1.323   0.569   3.260
  294SOL    HW1 1017   1.388   0.535   3.322
  294SOL    HW2 1018   1.305   0.495   3.202
  295SOL     OW 1019   0.852   1.418   2.784
  295SOL    HW1 1020   0.855   1.483   2.854
  295SOL    HW2 1021   0.834   1.335   2.828
  296SOL     OW 1022   0.901   0.582   2.715
  296SOL    HW1 1023   0.829   0.589   2.778
  296SOL    HW2 1024   0.963   0.650   2.742
  297SOL     OW 1025   0.598   4.979   2.365
  297SOL    HW1 1026   0.511   5.005   2.396
  297SOL    HW2 1027   0.590   4.886   2.344
  298SOL     OW 1028   1.566   1.165   1.873
  298SOL    HW1 1029   1.586   1.255   1.899
  298SOL    HW2 1030   1.520   1.174   1.790
  299SOL     OW 1031   0.356   4.942   2.035
  299SOL    HW1 1032   0.441   4.969   2.001
  299SOL    HW2 1033   0.324   5.019   2.082
  300SOL     OW 1034   0.982   0.306   2.391
  300SOL    HW1 1035   0.935   0.229   2.424
  300SOL    HW2 1036   0.927   0.380   2.416
  301SOL     OW 1037   1.038   0.612   3.238
  301SOL    HW1 1038   1.130   0.617   3.267
  301SOL    HW2 1039   1.036   0.539   3.177
  302SOL     OW 1040   1.243   1.672   2.707
  302SOL    HW1 1041   1.204   1.585   2.704
  302SOL    HW2 1042   1.232   1.707   2.618
  303SOL     OW 1043   0.472   1.055   2.620
  303SOL    HW1 1044   0.407   1.100   2.674
  303SOL    HW2 1045   0.452   1.084   2.531
  304SOL     OW 1046   1.225   1.778   2.453
  304SOL    HW1 1047   1.267   1.854   2.412
  304SOL    HW2 1048   1.245   1.705   2.395
  305SOL     OW 1049   0.974   0.512   1.917
  305SOL    HW1 1050   1.041   0.536   1.981
  305SOL    HW2 1051   0.934   0.432   1.952
  306SOL     OW 1052   0.102   0.595   3.232
  306SOL    HW1 1053   0.028   0.640   3.273
  306SOL    HW2 1054   0.070   0.572   3.144
  307SOL     OW 1055   0.594   0.216   2.983
  307SOL    HW1 1056   0.666   0.153   2.978
  307SOL    HW2 1057   0.573   0.235   2.891
  308SOL     OW 1058   0.839   0.538   2.454
  308SOL    HW1 1059   0.862   0.552   2.546
  308SOL    HW2 1060   0.899   0.593   2.405
  309SOL     OW 1061   0.957   0.106   2.699
  309SOL    HW1 1062   0.918   0.088   2.614
  309SOL    HW2 1063   1.043   0.064   2.696
  310SOL     OW 1064   1.473   1.183   2.650
  310SOL    HW1 1065   1.422   1.177   2.569
  310SOL    HW2 1066   1.460   1.099   2.693
  311SOL     OW 1067   1.471   0.689   2.857
  311SOL    HW1 1068   1.495   0.715   2.768
  311SOL    HW2 1069   1.416   0.611   2.843
  312SOL     OW 1070   1.849   0.780   2.224
  312SOL    HW1 1071   1.929   0.739   2.191
  312SOL    HW2 1072   1.845   0.865   2.180
  313SOL     OW 1073   0.531   1.445   2.013
  313SOL    HW1 1074   0.608   1.398   2.046
  313SOL    HW2 1075   0.517   1.409   1.925
  314SOL     OW 1076   1.694   1.340   2.568
  314SOL    HW1 1077   1.647   1.269   2.611
  314SOL    HW2 1078   1.626   1.397   2.533
  315SOL     OW 1079   1.393   0.563   1.919
  315SOL    HW1 1080   1.488   0.555   1.932
  315SOL    HW2 1081   1.377   0.519   1.836
  316SOL     OW 1082   0.547   0.268   2.182
  316SOL    HW1 1083   0.616   0.335   2.182
  316SOL    HW2 1084   0.566   0.215   2.105
  317SOL     OW 1085   1.688   1.187   3.386
  317SOL    HW1 1086   1.738   1.259   3.425
  317SOL    HW2 1087   1.660   1.221   3.301
  318SOL     OW 1088   1.043   1.406   3.144
  318SOL    HW1 1089   1.091   1.333   3.183
  318SOL    HW2 1090   1.102   1.442   3.078
  319SOL     OW 1091   1.540   1.481   3.480
  319SOL    HW1 1092   1.630   1.451   3.492
  319SOL    HW2 1093   1.542   1.533   3.399
  320SOL     OW 1094   1.042   1.122   3.005
  320SOL    HW1 1095   0.955   1.155   2.983
  320SOL    HW2 1096   1.092   1.132   2.924
  321SOL     OW 1097   1.613   1.026   2.944
  321SOL    HW1 1098   1.687   1.008   3.002
  321SOL    HW2 1099   1.649   1.018   2.855
  322SOL     OW 1100   0.856   0.025   3.205
  322SOL    HW1 1101   0.850   0.044   3.111
  322SOL    HW2 1102   0.846  -0.069   3.211
  323SOL     OW 1103   1.022   1.231   3.629
  323SOL    HW1 1104   1.037   1.138   3.645
  323SOL    HW2 1105   0.975   1.261   3.707
  324SOL     OW 1106   0.738   1.067   2.278
  324SOL    HW1 1107   0.738   1.019   2.361
  324SOL    HW2 1108   0.647   1.096   2.267
  325SOL     OW 1109   0.544   0.831   3.065
  325SOL    HW1 1110   0.591   0.845   3.147
  325SOL    HW2 1111   0.477   0.765   3.087
  326SOL     OW 1112   1.252   0.327   3.140
  326SOL    HW1 1113   1.225   0.262   3.204
  326SOL    HW2 1114   1.171   0.358   3.100
  327SOL     OW 1115   4.996   1.663   3.207
  327SOL    HW1 1116   4.929   1.665   3.276
  327SOL    HW2 1117   5.013   1.570   3.194
  328SOL     OW 1118   0.457   1.108   2.330
  328SOL    HW1 1119   0.429   1.190   2.289
  328SOL    HW2 1120   0.421   1.039   2.273
  329SOL     OW 1121   0.518   0.546   2.740
  329SOL    HW1 1122   0.586   0.574   2.801
  329SOL    HW2 1123   0.437   0.550   2.791
  330SOL     OW 1124   1.204   1.321   2.269
  330SOL    HW1 1125   1.245   1.253   2.323
  330SOL    HW2 1126   1.129   1.350   2.320
  331SOL     OW 1127   1.242   1.502   2.978
  331SOL    HW1 1128   1.306   1.526   3.045
  331SOL    HW2 1129   1.294   1.467   2.906
  332SOL     OW 1130   1.505   0.669   2.330
  332SOL    HW1 1131   1.529   0.603   2.396
  332SOL    HW2 1132   1.556   0.645   2.253
  333SOL     OW 1133   0.331   1.503   3.193
  333SOL    HW1 1134   0.365   1.418   3.221
  333SOL    HW2 1135   0.286   1.486   3.110
  334SOL     OW 1136   0.379   0.767   3.460
  334SOL    HW1 1137   0.309   0.815   3.415
  334SOL    HW2 1138   0.349   0.676   3.461
  335SOL     OW 1139   1.679   0.850   3.612
  335SOL    HW1 1140   1.727   0.914   3.664
  335SOL    HW2 1141   1.591   0.886   3.605
  336SOL     OW 1142   0.937   0.078   3.633
  336SOL    HW1 1143   1.020   0.126   3.633
  336SOL    HW2 1144   0.872   0.141   3.604
  337SOL     OW 1145   0.567   4.996   3.514
  337SOL    HW1 1146   0.575   5.031   3.602
  337SOL    HW2 1147   0.604   4.908   3.519
  338SOL     OW 1148   0.645   0.980   2.853
  338SOL    HW1 1149   0.608   0.927   2.924
  338SOL    HW2 1150   0.573   0.991   2.791
  339SOL     OW 1151   1.286   0.893   2.878
  339SOL    HW1 1152   1.303   0.948   2.955
  339SOL    HW2 1153   1.352   0.824   2.884
  340SOL     OW 1154   1.185   0.565   2.101
  340SOL    HW1 1155   1.218   0.644   2.143
  340SOL    HW2 1156   1.251   0.544   2.035
  341SOL     OW 1157   0.331   0.290   3.023
  341SOL    HW1 1158   0.421   0.260   3.032
  341SOL    HW2 1159   0.295   0.285   3.111
  342SOL     OW 1160   0.025   1.390   3.172
  342SOL    HW1 1161   0.063   1.319   3.225
  342SOL    HW2 1162   0.084   1.398   3.097
  343SOL     OW 1163   0.715   0.612   2.916
  343SOL    HW1 1164   0.733   0.693   2.963
  343SOL    HW2 1165   0.725   0.543   2.981
  344SOL     OW 1166   1.823   1.045   3.733
  344SOL    HW1 1167   1.811   1.114   3.799
  344SOL    HW2 1168   1.898   1.075   3.681
  345SOL     OW 1169   0.342   0.012   2.471
  345SOL    HW1 1170   0.319   0.103   2.490
  345SOL    HW2 1171   0.259  -0.029   2.447
  346SOL     OW 1172   1.679   0.284   2.205
  346SOL    HW1 1173   1.681   0.379   2.195
  346SOL    HW2 1174   1.757   0.254   2.158
  347SOL     OW 1175   1.029   0.795   2.839
  347SOL    HW1 1176   1.120   0.823   2.853
  347SOL    HW2 1177   0.990   0.867   2.789
  348SOL     OW 1178   0.945   1.585   3.643
  348SOL    HW1 1179   1.035   1.576   3.677
  348SOL    HW2 1180   0.953   1.644   3.569
  349SOL     OW 1181   1.805   1.415   3.471
  349SOL    HW1 1182   1.865   1.445   3.540
  349SOL    HW2 1183   1.840   1.454   3.391
  350SOL     OW 1184   0.298   0.800   3.724
  350SOL    HW1 1185   0.216   0.846   3.710
  350SOL    HW2 1186   0.336   0.792   3.637
  351SOL     OW 1187   1.580   0.182   1.941
  351SOL    HW1 1188   1.567   0.206   2.032
  351SOL    HW2 1189   1.501   0.133   1.918
  352SOL     OW 1190   1.321   0.830   1.915
  352SOL    HW1 1191   1.330   0.858   1.824
  352SOL    HW2 1192   1.339   0.736   1.914
  353SOL     OW 1193   1.104   1.427   2.682
  353SOL    HW1 1194   1.130   1.337   2.698
  353SOL    HW2 1195   1.016   1.433   2.719
  354SOL     OW 1196   0.231   0.861   2.731
  354SOL    HW1 1197   0.310   0.813   2.707
  354SOL    HW2 1198   0.261   0.949   2.754
  355SOL     OW 1199   0.308   0.538   2.913
  355SOL    HW1 1200   0.335   0.585   2.992
  355SOL    HW2 1201   0.308   0.445   2.939
  356SOL     OW 1202   1.070   0.311   3.522
  356SOL    HW1 1203   0.975   0.313   3.508
  356SOL    HW2 1204   1.105   0.266   3.445
  357SOL     OW 1205   1.121   0.141   3.307
  357SOL    HW1 1206   1.042   0.099   3.274
  357SOL    HW2 1207   1.186   0.071   3.310
  358SOL     OW 1208   5.017   1.330   1.999
  358SOL    HW1 1209   5.007   1.425   2.004
  358SOL    HW2 1210   4.949   1.302   1.937
  359SOL     OW 1211   0.119   1.911   2.813
  359SOL    HW1 1212   0.192   1.849   2.803
  359SOL    HW2 1213   0.056   1.865   2.869
  360SOL     OW 1214   0.418   1.519   2.827
  360SOL    HW1 1215   0.471   1.484   2.755
  360SOL    HW2 1216   0.386   1.603   2.795
  361SOL     OW 1217   0.891   0.779   3.077
  361SOL    HW1 1218   0.945   0.723   3.133
  361SOL    HW2 1219   0.940   0.785   2.995
  362SOL     OW 1220   0.036   0.585   2.964
  362SOL    HW1 1221   0.120   0.565   2.923
  362SOL    HW2 1222   0.032   0.681   2.963
  363SOL     OW 1223   0.218   0.536   3.476
  363SOL    HW1 1224   0.161   0.605   3.511
  363SOL    HW2 1225   0.185   0.521   3.387
  364SOL     OW 1226   1.429   0.945   3.516
  364SOL    HW1 1227   1.414   1.036   3.490
  364SOL    HW2 1228   1.432   0.897   3.434
  365SOL     OW 1229   0.736   0.467   2.200
  365SOL    HW1 1230   0.769   0.488   2.288
  365SOL    HW2 1231   0.697   0.548   2.169
  366SOL     OW 1232   1.695   0.713   3.015
  366SOL    HW1 1233   1.764   0.702   2.949
  366SOL    HW2 1234   1.613   0.702   2.967
  367SOL     OW 1235   0.267   1.624   3.745
  367SOL    HW1 1236   0.331   1.553   3.748
  367SOL    HW2 1237   0.287   1.671   3.664
  368SOL     OW 1238   0.742   0.420   3.105
  368SOL    HW1 1239   0.723   0.447   3.195
  368SOL    HW2 1240   0.681   0.347   3.089
  369SOL     OW 1241   0.953   1.713   3.400
  369SOL    HW1 1242   0.887   1.666   3.349
  369SOL    HW2 1243   1.037   1.684   3.364
  370SOL     OW 1244   0.423   0.530   1.984
  370SOL    HW1 1245   0.340   0.572   2.007
  370SOL    HW2 1246   0.398   0.443   1.953
  371SOL     OW 1247   0.101   1.181   3.342
  371SOL    HW1 1248   0.180   1.183   3.395
  371SOL    HW2 1249   0.030   1.197   3.404
  372SOL     OW 1250   1.397   1.040   3.103
  372SOL    HW1 1251   1.408   0.967   3.164
  372SOL    HW2 1252   1.471   1.032   3.042
  373SOL     OW 1253   1.291   0.788   2.211
  373SOL    HW1 1254   1.362   0.753   2.266
  373SOL    HW2 1255   1.336   0.846   2.150
  374SOL     OW 1256   1.681   1.658   2.973
  374SOL    HW1 1257   1.659   1.670   3.066
  374SOL    HW2 1258   1.605   1.692   2.926
  375SOL     OW 1259   0.051   1.273   2.793
  375SOL    HW1 1260   0.055   1.303   2.702
  375SOL    HW2 1261  -0.042   1.269   2.813
  376SOL     OW 1262   0.681   1.542   3.556
  376SOL    HW1 1263   0.775   1.555   3.570
  376SOL    HW2 1264   0.640   1.586   3.631
  377SOL     OW 1265   1.645   0.201   2.463
  377SOL    HW1 1266   1.699   0.123   2.477
  377SOL    HW2 1267   1.650   0.215   2.368
  378SOL     OW 1268   1.336   1.561   2.311
  378SOL    HW1 1269   1.385   1.535   2.390
  378SOL    HW2 1270   1.287   1.483   2.287
  379SOL     OW 1271   4.938   1.873   3.712
  379SOL    HW1 1272   4.960   1.784   3.739
  379SOL    HW2 1273   5.008   1.899   3.652
  380SOL     OW 1274   1.256   0.947   2.612
  380SOL    HW1 1275   1.275   0.925   2.703
  380SOL    HW2 1276   1.233   0.864   2.571
  381SOL     OW 1277   0.814   1.244   3.320
  381SOL    HW1 1278   0.883   1.307   3.300
  381SOL    HW2 1279   0.852   1.158   3.299
  382SOL     OW 1280   0.612   1.724   1.972
  382SOL    HW1 1281   0.684   1.693   2.027
  382SOL    HW2 1282   0.544   1.658   1.983
  383SOL     OW 1283   1.638   1.635   3.257
  383SOL    HW1 1284   1.722   1.590   3.246
  383SOL    HW2 1285   1.659   1.712   3.310
  384SOL     OW 1286   1.817   0.219   2.809
  384SOL    HW1 1287   1.892   0.274   2.786
  384SOL    HW2 1288   1.849   0.129   2.799
  385SOL     OW 1289   0.255   0.264   2.535
  385SOL    HW1 1290   0.240   0.237   2.625
  385SOL    HW2 1291   0.196   0.338   2.522
  386SOL     OW 1292   1.157   1.762   1.998
  386SOL    HW1 1293   1.100   1.726   1.929
  386SOL    HW2 1294   1.245   1.730   1.975
  387SOL     OW 1295   0.925   1.006   3.230
  387SOL    HW1 1296   0.985   1.049   3.168
  387SOL    HW2 1297   0.894   0.929   3.183
  388SOL     OW 1298   0.980   0.943   2.228
  388SOL    HW1 1299   1.032   0.990   2.293
  388SOL    HW2 1300   0.894   0.983   2.232
  389SOL     OW 1301   1.431   1.709   1.935
  389SOL    HW1 1302   1.477   1.666   2.007
  389SOL    HW2 1303   1.478   1.682   1.856
  390SOL     OW 1304   0.388   1.228   3.220
  390SOL    HW1 1305   0.372   1.207   3.312
  390SOL    HW2 1306   0.331   1.168   3.171
  391SOL     OW 1307   1.591   1.259   3.144
  391SOL    HW1 1308   1.515   1.203   3.129
  391SOL    HW2 1309   1.601   1.307   3.061
  392SOL     OW 1310   1.105   1.150   2.725
  392SOL    HW1 1311   1.019   1.108   2.717
  392SOL    HW2 1312   1.164   1.091   2.680
  393SOL     OW 1313   1.044   0.359   2.792
  393SOL    HW1 1314   0.994   0.428   2.748
  393SOL    HW2 1315   1.009   0.278   2.755
  394SOL     OW 1316   0.591   1.605   2.300
  394SOL    HW1 1317   0.658   1.598   2.233
  394SOL    HW2 1318   0.632   1.571   2.379
  395SOL     OW 1319   1.750   0.368   3.260
  395SOL    HW1 1320   1.789   0.452   3.235
  395SOL    HW2 1321   1.659   0.389   3.278
  396SOL     OW 1322   0.370   1.341   2.210
  396SOL    HW1 1323   0.430   1.384   2.150
  396SOL    HW2 1324   0.285   1.344   2.166
  397SOL     OW 1325   0.074   0.954   3.700
  397SOL    HW1 1326   0.009   0.957   3.771
  397SOL    HW2 1327   0.114   1.041   3.700
  398SOL     OW 1328   0.651   0.181   3.325
  398SOL    HW1 1329   0.613   0.114   3.382
  398SOL    HW2 1330   0.719   0.135   3.276
  399SOL     OW 1331   0.060   0.332   1.807
  399SOL    HW1 1332   0.094   0.421   1.798
  399SOL    HW2 1333  -0.019   0.330   1.754
  400SOL     OW 1334   1.448   0.818   3.264
  400SOL    HW1 1335   1.535   0.787   3.239
  400SOL    HW2 1336   1.392   0.741   3.259
  401SOL     OW 1337   0.055   0.141   2.240
  401SOL    HW1 1338   0.064   0.069   2.303
  401SOL    HW2 1339   0.144   0.158   2.210
  402SOL     OW 1340   1.155   1.275   2.001
  402SOL    HW1 1341   1.184   1.297   2.089
  402SOL    HW2 1342   1.150   1.180   1.999
  403SOL     OW 1343   0.630   0.824   3.336
  403SOL    HW1 1344   0.549   0.813   3.385
  403SOL    HW2 1345   0.691   0.865   3.398
  404SOL     OW 1346   1.477   1.756   2.821
  404SOL    HW1 1347   1.508   1.832   2.772
  404SOL    HW2 1348   1.409   1.717   2.766
  405SOL     OW 1349   0.628   0.516   3.553
  405SOL    HW1 1350   0.544   0.490   3.514
  405SOL    HW2 1351   0.682   0.542   3.479
  406SOL     OW 1352   1.426   1.210   3.451
  406SOL    HW1 1353   1.520   1.197   3.435
  406SOL    HW2 1354   1.420   1.299   3.485
  407SOL     OW 1355   0.320   1.777   3.522
  407SOL    HW1 1356   0.392   1.840   3.532
  407SOL    HW2 1357   0.309   1.768   3.427
  408SOL     OW 1358   1.824   0.941   3.101
  408SOL    HW1 1359   1.813   0.940   3.196
  408SOL    HW2 1360   1.787   0.857   3.072
  409SOL     OW 1361   1.229   0.340   2.281
  409SOL    HW1 1362   1.143   0.322   2.318
  409SOL    HW2 1363   1.214   0.409   2.216
  410SOL     OW 1364   0.601   0.676   2.513
  410SOL    HW1 1365   0.566   0.630   2.589
  410SOL    HW2 1366   0.674   0.622   2.484
  411SOL     OW 1367   1.848   0.378   3.516
  411SOL    HW1 1368   1.802   0.453   3.554
  411SOL    HW2 1369   1.819   0.375   3.425
  412SOL     OW 1370   1.770   0.931   3.369
  412SOL    HW1 1371   1.746   1.023   3.377
  412SOL    HW2 1372   1.737   0.891   3.450
  413SOL     OW 1373   0.941   1.438   1.960
  413SOL    HW1 1374   1.020   1.385   1.973
  413SOL    HW2 1375   0.970   1.510   1.904
  414SOL     OW 1376   0.595   1.826   2.788
  414SOL    HW1 1377   0.601   1.884   2.864
  414SOL    HW2 1378   0.683   1.792   2.776
  415SOL     OW 1379   0.882   0.986   2.707
  415SOL    HW1 1380   0.810   0.985   2.771
  415SOL    HW2 1381   0.839   0.969   2.623
  416SOL     OW 1382   1.117   1.003   1.993
  416SOL    HW1 1383   1.075   0.967   2.071
  416SOL    HW2 1384   1.185   0.939   1.970
  417SOL     OW 1385   1.834   1.578   2.633
  417SOL    HW1 1386   1.791   1.626   2.561
  417SOL    HW2 1387   1.800   1.489   2.626
  418SOL     OW 1388   0.186   1.206   3.719
  418SOL    HW1 1389   0.232   1.225   3.802
  418SOL    HW2 1390   0.105   1.256   3.725
  419SOL     OW 1391   0.079   1.361   2.539
  419SOL    HW1 1392   0.174   1.363   2.525
  419SOL    HW2 1393   0.043   1.332   2.455
  420SOL     OW 1394   0.612   1.278   3.510
  420SOL    HW1 1395   0.625   1.372   3.523
  420SOL    HW2 1396   0.679   1.254   3.445
  421SOL     OW 1397   1.896   0.212   3.082
  421SOL    HW1 1398   1.840   0.253   3.148
  421SOL    HW2 1399   1.848   0.225   3.000
  422SOL     OW 1400   0.398   0.430   2.355
  422SOL    HW1 1401   0.355   0.367   2.413
  422SOL    HW2 1402   0.448   0.375   2.294
  423SOL     OW 1403   1.669   1.390   2.915
  423SOL    HW1 1404   1.695   1.481   2.930
  423SOL    HW2 1405   1.748   1.348   2.882
  424SOL     OW 1406   0.372   0.626   3.164
  424SOL    HW1 1407   0.421   0.565   3.219
  424SOL    HW2 1408   0.283   0.621   3.196
  425SOL     OW 1409   0.777   1.594   2.527
  425SOL    HW1 1410   0.804   1.607   2.618
  425SOL    HW2 1411   0.794   1.678   2.485
  426SOL     OW 1412   1.432   0.176   2.977
  426SOL    HW1 1413   1.377   0.241   3.021
  426SOL    HW2 1414   1.450   0.215   2.891
  427SOL     OW 1415   0.805   0.047   2.932
  427SOL    HW1 1416   0.777  -0.043   2.915
  427SOL    HW2 1417   0.858   0.071   2.856
  428SOL     OW 1418   0.739   1.296   2.096
  428SOL    HW1 1419   0.769   1.225   2.153
  428SOL    HW2 1420   0.819   1.331   2.057
  429SOL     OW 1421   0.612   1.547   3.035
  429SOL    HW1 1422   0.541   1.555   2.971
  429SOL    HW2 1423   0.609   1.456   3.062
  430SOL     OW 1424   1.338   0.063   1.896
  430SOL    HW1 1425   1.332   0.066   1.991
  430SOL    HW2 1426   1.246   0.055   1.867
  431SOL     OW 1427   1.334   0.464   2.511
  431SOL    HW1 1428   1.430   0.462   2.508
  431SOL    HW2 1429   1.306   0.411   2.436
  432SOL     OW 1430   1.557   0.204   2.723
  432SOL    HW1 1431   1.641   0.221   2.765
  432SOL    HW2 1432   1.574   0.216   2.630
  433SOL     OW 1433   0.101   1.091   2.122
  433SOL    HW1 1434   0.035   1.032   2.087
  433SOL    HW2 1435   0.089   1.172   2.072
  434SOL     OW 1436   0.806   1.620   2.131
  434SOL    HW1 1437   0.871   1.689   2.150
  434SOL    HW2 1438   0.856   1.553   2.085
  435SOL     OW 1439   0.260   0.573   3.879
  435SOL    HW1 1440   0.260   0.654   3.826
  435SOL    HW2 1441   0.348   0.537   3.867
  436SOL     OW 1442   0.339   0.263   4.618
  436SOL    HW1 1443   0.345   0.318   4.696
  436SOL    HW2 1444   0.283   0.189   4.644
  437SOL     OW 1445   0.005   0.375   4.304
  437SOL    HW1 1446   0.094   0.377   4.339
  437SOL    HW2 1447   0.013   0.328   4.221
  438SOL     OW 1448   0.509   1.242   4.949
  438SOL    HW1 1449   0.594   1.240   4.993
  438SOL    HW2 1450   0.500   1.155   4.911
  439SOL     OW 1451   1.565   1.556   4.494
  439SOL    HW1 1452   1.480   1.553   4.451
  439SOL    HW2 1453   1.617   1.615   4.440
  440SOL     OW 1454   1.124   0.735   4.394
  440SOL    HW1 1455   1.055   0.690   4.443
  440SOL    HW2 1456   1.099   0.726   4.302
  441SOL     OW 1457   1.738   0.722   4.023
  441SOL    HW1 1458   1.790   0.764   4.092
  441SOL    HW2 1459   1.800   0.702   3.954
  442SOL     OW 1460   0.760   1.150   4.767
  442SOL    HW1 1461   0.830   1.163   4.831
  442SOL    HW2 1462   0.697   1.092   4.812
  443SOL     OW 1463   0.675   0.981   4.392
  443SOL    HW1 1464   0.757   0.980   4.442
  443SOL    HW2 1465   0.620   1.043   4.439
  444SOL     OW 1466   0.381   1.407   4.773
  444SOL    HW1 1467   0.426   1.351   4.837
  444SOL    HW2 1468   0.335   1.345   4.716
  445SOL     OW 1469   1.673   0.437   4.364
  445SOL    HW1 1470   1.647   0.363   4.418
  445SOL    HW2 1471   1.633   0.513   4.406
  446SOL     OW 1472   0.198   1.776   4.237
  446SOL    HW1 1473   0.112   1.794   4.274
  446SOL    HW2 1474   0.190   1.798   4.144
  447SOL     OW 1475   0.244   1.511   4.182
  447SOL    HW1 1476   0.228   1.601   4.212
  447SOL    HW2 1477   0.336   1.495   4.202
  448SOL     OW 1478   0.292   1.156   4.670
  448SOL    HW1 1479   0.294   1.061   4.670
  448SOL    HW2 1480   0.211   1.179   4.714
  449SOL     OW 1481   0.671   0.949   3.901
  449SOL    HW1 1482   0.759   0.914   3.890
  449SOL    HW2 1483   0.671   1.030   3.850
  450SOL     OW 1484   0.158   0.635   4.283
  450SOL    HW1 1485   0.197   0.562   4.330
  450SOL    HW2 1486   0.081   0.598   4.240
  451SOL     OW 1487   1.802   1.757   4.071
  451SOL    HW1 1488   1.716   1.723   4.048
  451SOL    HW2 1489   1.793   1.852   4.064
  452SOL     OW 1490  -0.006   1.622   3.795
  452SOL    HW1 1491  -0.024   1.531   3.819
  452SOL    HW2 1492   0.089   1.624   3.781
  453SOL     OW 1493   1.631   0.908   4.307
  453SOL    HW1 1494   1.616   0.990   4.259
  453SOL    HW2 1495   1.721   0.884   4.285
  454SOL     OW 1496   1.602   1.145   4.167
  454SOL    HW1 1497   1.650   1.184   4.094
  454SOL    HW2 1498   1.615   1.206   4.239
  455SOL     OW 1499   0.644   1.415   4.443
  455SOL    HW1 1500   0.680   1.434   4.530
  455SOL    HW2 1501   0.605   1.328   4.452
  456SOL     OW 1502   0.904   4.942   4.220
  456SOL    HW1 1503   0.963   4.905   4.285
  456SOL    HW2 1504   0.833   4.877   4.213
  457SOL     OW 1505   0.179   1.042   4.999
  457SOL    HW1 1506   0.091   1.009   5.015
  457SOL    HW2 1507   0.168   1.113   4.936
  458SOL     OW 1508   1.502   0.859   3.909
  458SOL    HW1 1509   1.447   0.836   3.984
  458SOL    HW2 1510   1.587   0.818   3.928
  459SOL     OW 1511   1.450   1.391   4.693
  459SOL    HW1 1512   1.472   1.449   4.620
  459SOL    HW2 1513   1.451   1.303   4.655
  460SOL     OW 1514   1.690   1.737   4.338
  460SOL    HW1 1515   1.738   1.716   4.259
  460SOL    HW2 1516   1.692   1.833   4.343
  461SOL     OW 1517   0.607   0.689   3.999
  461SOL    HW1 1518   0.533   0.702   4.058
  461SOL    HW2 1519   0.627   0.776   3.966
  462SOL     OW 1520   1.261   0.387   4.712
  462SOL    HW1 1521   1.285   0.453   4.777
  462SOL    HW2 1522   1.276   0.430   4.627
  463SOL     OW 1523   1.557   1.662   3.996
  463SOL    HW1 1524   1.502   1.617   4.061
  463SOL    HW2 1525   1.542   1.615   3.915
  464SOL     OW 1526   1.068   0.695   4.123
  464SOL    HW1 1527   0.978   0.664   4.135
  464SOL    HW2 1528   1.110   0.627   4.070
  465SOL     OW 1529   0.139   0.851   4.453
  465SOL    HW1 1530   0.100   0.923   4.403
  465SOL    HW2 1531   0.151   0.781   4.389
  466SOL     OW 1532   0.082   1.774   0.306
  466SOL    HW1 1533   0.164   1.790   0.261
  466SOL    HW2 1534   0.049   1.861   0.329
  467SOL     OW 1535   0.863   0.358   3.958
  467SOL    HW1 1536   0.912   0.292   4.007
  467SOL    HW2 1537   0.917   0.376   3.881
  468SOL     OW 1538   1.344   1.049   4.185
  468SOL    HW1 1539   1.431   1.084   4.168
  468SOL    HW2 1540   1.347   0.960   4.149
  469SOL     OW 1541   0.533   0.092   4.513
  469SOL    HW1 1542   0.467   0.154   4.543
  469SOL    HW2 1543   0.599   0.091   4.583
  470SOL     OW 1544   0.955   1.332   4.219
  470SOL    HW1 1545   0.945   1.409   4.276
  470SOL    HW2 1546   0.872   1.326   4.172
  471SOL     OW 1547   0.366   1.799   4.648
  471SOL    HW1 1548   0.387   1.826   4.559
  471SOL    HW2 1549   0.433   1.733   4.669
  472SOL     OW 1550   1.828   1.110   4.521
  472SOL    HW1 1551   1.880   1.032   4.503
  472SOL    HW2 1552   1.779   1.090   4.600
  473SOL     OW 1553   0.400   0.911   3.947
  473SOL    HW1 1554   0.490   0.929   3.920
  473SOL    HW2 1555   0.359   0.871   3.870
  474SOL     OW 1556   1.524   0.674   4.396
  474SOL    HW1 1557   1.555   0.765   4.391
  474SOL    HW2 1558   1.514   0.647   4.305
  475SOL     OW 1559   1.028   1.911   3.964
  475SOL    HW1 1560   1.002   1.820   3.976
  475SOL    HW2 1561   1.041   1.920   3.870
  476SOL     OW 1562   1.591   1.337   3.839
  476SOL    HW1 1563   1.671   1.309   3.884
  476SOL    HW2 1564   1.547   1.256   3.815
  477SOL     OW 1565   0.520   1.714   4.051
  477SOL    HW1 1566   0.568   1.685   3.973
  477SOL    HW2 1567   0.520   1.637   4.108
  478SOL     OW 1568   1.393   0.041   4.119
  478SOL    HW1 1569   1.470   0.073   4.167
  478SOL    HW2 1570   1.370  -0.041   4.162
  479SOL     OW 1571   0.312   1.868   4.914
  479SOL    HW1 1572   0.330   1.853   4.821
  479SOL    HW2 1573   0.323   1.962   4.926
  480SOL     OW 1574   0.971   1.607   4.693
  480SOL    HW1 1575   1.040   1.545   4.669
  480SOL    HW2 1576   0.964   1.665   4.617
  481SOL     OW 1577   0.391   0.742   4.167
  481SOL    HW1 1578   0.307   0.706   4.197
  481SOL    HW2 1579   0.367   0.806   4.100
  482SOL     OW 1580   0.589   0.083   3.768
  482SOL    HW1 1581   0.518   0.141   3.797
  482SOL    HW2 1582   0.641   0.068   3.847
  483SOL     OW 1583   0.755   1.437   4.691
  483SOL    HW1 1584   0.836   1.486   4.706
  483SOL    HW2 1585   0.774   1.349   4.724
  484SOL     OW 1586   0.958   0.577   4.561
  484SOL    HW1 1587   0.991   0.491   4.589
  484SOL    HW2 1588   0.864   0.563   4.547
  485SOL     OW 1589   0.591   0.109   4.223
  485SOL    HW1 1590   0.597   0.116   4.318
  485SOL    HW2 1591   0.601   0.199   4.191
  486SOL     OW 1592   1.487   1.097   3.773
  486SOL    HW1 1593   1.497   1.020   3.829
  486SOL    HW2 1594   1.448   1.063   3.692
  487SOL     OW 1595   0.291   0.009   3.913
  487SOL    HW1 1596   0.306   0.004   4.008
  487SOL    HW2 1597   0.316   0.098   3.890
  488SOL     OW 1598   0.975   0.198   4.157
  488SOL    HW1 1599   0.933   0.254   4.223
  488SOL    HW2 1600   0.954   0.109   4.185
  489SOL     OW 1601   1.304   1.550   4.417
  489SOL    HW1 1602   1.269   1.639   4.419
  489SOL    HW2 1603   1.247   1.500   4.475
  490SOL     OW 1604   0.551   1.171   4.553
  490SOL    HW1 1605   0.605   1.172   4.632
  490SOL    HW2 1606   0.461   1.171   4.585
  491SOL     OW 1607   1.224   1.811   4.425
  491SOL    HW1 1608   1.289   1.865   4.470
  491SOL    HW2 1609   1.218   1.849   4.337
  492SOL     OW 1610   1.019   0.457   3.748
  492SOL    HW1 1611   0.971   0.531   3.711
  492SOL    HW2 1612   1.052   0.409   3.672
  493SOL     OW 1613   0.844   0.382   4.313
  493SOL    HW1 1614   0.797   0.413   4.391
  493SOL    HW2 1615   0.840   0.455   4.252
  494SOL     OW 1616   0.991   0.049   4.579
  494SOL    HW1 1617   0.926  -0.004   4.624
  494SOL    HW2 1618   1.030  -0.009   4.514
  495SOL     OW 1619   1.472   1.148   4.567
  495SOL    HW1 1620   1.524   1.182   4.494
  495SOL    HW2 1621   1.413   1.085   4.527
  496SOL     OW 1622   1.378   0.633   4.799
  496SOL    HW1 1623   1.454   0.612   4.744
  496SOL    HW2 1624   1.334   0.703   4.752
  497SOL     OW 1625   1.894   0.843   4.238
  497SOL    HW1 1626   1.929   0.861   4.325
  497SOL    HW2 1627   1.920   0.919   4.185
  498SOL     OW 1628   0.456   1.397   3.809
  498SOL    HW1 1629   0.385   1.379   3.871
  498SOL    HW2 1630   0.506   1.316   3.805
  499SOL     OW 1631   1.649   1.282   4.399
  499SOL    HW1 1632   1.722   1.236   4.442
  499SOL    HW2 1633   1.662   1.374   4.425
  500SOL     OW 1634   1.454   0.556   3.760
  500SOL    HW1 1635   1.449   0.487   3.826
  500SOL    HW2 1636   1.369   0.600   3.764
  501SOL     OW 1637   0.611   0.342   4.067
  501SOL    HW1 1638   0.558   0.369   3.992
  501SOL    HW2 1639   0.700   0.337   4.032
  502SOL     OW 1640   0.986   1.207   4.929
  502SOL    HW1 1641   1.055   1.265   4.897
  502SOL    HW2 1642   1.031   1.141   4.981
  503SOL     OW 1643   1.677   1.059   4.751
  503SOL    HW1 1644   1.715   1.131   4.800
  503SOL    HW2 1645   1.597   1.096   4.712
  504SOL     OW 1646   0.646   1.091   4.143
  504SOL    HW1 1647   0.664   1.050   4.227
  504SOL    HW2 1648   0.666   1.024   4.078
  505SOL     OW 1649   0.372   0.852   0.012
  505SOL    HW1 1650   0.327   0.771   0.037
  505SOL    HW2 1651   0.301   0.914  -0.004
  506SOL     OW 1652   0.379   1.144   4.084
  506SOL    HW1 1653   0.466   1.141   4.124
  506SOL    HW2 1654   0.370   1.058   4.044
  507SOL     OW 1655   0.689   0.516   4.515
  507SOL    HW1 1656   0.664   0.600   4.478
  507SOL    HW2 1657   0.617   0.457   4.491
  508SOL     OW 1658   1.212   1.295   4.128
  508SOL    HW1 1659   1.249   1.208   4.147
  508SOL    HW2 1660   1.127   1.294   4.173
  509SOL     OW 1661   1.235   1.339   4.858
  509SOL    HW1 1662   1.239   1.357   4.952
  509SOL    HW2 1663   1.317   1.372   4.823
  510SOL     OW 1664   1.547   0.562   4.142
  510SOL    HW1 1665   1.599   0.504   4.198
  510SOL    HW2 1666   1.612   0.614   4.094
  511SOL     OW 1667   0.528   0.990   4.830
  511SOL    HW1 1668   0.494   0.934   4.901
  511SOL    HW2 1669   0.482   0.960   4.752
  512SOL     OW 1670   1.270   0.858   4.692
  512SOL    HW1 1671   1.289   0.930   4.751
  512SOL    HW2 1672   1.282   0.895   4.604
  513SOL     OW 1673   1.170   0.503   3.970
  513SOL    HW1 1674   1.126   0.486   3.887
  513SOL    HW2 1675   1.193   0.417   4.003
  514SOL     OW 1676   0.348   0.410   4.852
  514SOL    HW1 1677   0.427   0.396   4.905
  514SOL    HW2 1678   0.276   0.386   4.910
  515SOL     OW 1679   0.063   1.436   0.019
  515SOL    HW1 1680   0.138   1.491  -0.001
  515SOL    HW2 1681  -0.005   1.498   0.047
  516SOL     OW 1682   0.748   0.388   4.765
  516SOL    HW1 1683   0.836   0.360   4.742
  516SOL    HW2 1684   0.720   0.441   4.690
  517SOL     OW 1685   0.169   0.096   4.321
  517SOL    HW1 1686   0.093   0.042   4.341
  517SOL    HW2 1687   0.188   0.142   4.403
  518SOL     OW 1688   1.454   0.370   3.963
  518SOL    HW1 1689   1.483   0.432   4.030
  518SOL    HW2 1690   1.377   0.328   4.002
  519SOL     OW 1691   1.002   0.796   4.724
  519SOL    HW1 1692   1.096   0.813   4.716
  519SOL    HW2 1693   0.988   0.716   4.672
  520SOL     OW 1694   1.547   0.194   3.773
  520SOL    HW1 1695   1.522   0.258   3.839
  520SOL    HW2 1696   1.503   0.113   3.799
  521SOL     OW 1697   1.290   0.836   3.727
  521SOL    HW1 1698   1.358   0.837   3.793
  521SOL    HW2 1699   1.334   0.860   3.645
  522SOL     OW 1700   1.144   1.416   4.603
  522SOL    HW1 1701   1.182   1.393   4.688
  522SOL    HW2 1702   1.122   1.332   4.564
  523SOL     OW 1703   0.330   0.877   4.659
  523SOL    HW1 1704   0.302   0.803   4.712
  523SOL    HW2 1705   0.283   0.866   4.576
  524SOL     OW 1706   0.192   0.655   4.783
  524SOL    HW1 1707   0.108   0.616   4.808
  524SOL    HW2 1708   0.257   0.588   4.804
  525SOL     OW 1709   1.213   0.148   0.210
  525SOL    HW1 1710   1.230   0.242   0.216
  525SOL    HW2 1711   1.117   0.141   0.207
  526SOL     OW 1712  -0.007   1.354   3.855
  526SOL    HW1 1713   0.077   1.360   3.900
  526SOL    HW2 1714  -0.064   1.307   3.916
  527SOL     OW 1715   0.114   1.898   4.597
  527SOL    HW1 1716   0.192   1.846   4.615
  527SOL    HW2 1717   0.146   1.988   4.591
  528SOL     OW 1718   0.550   1.614   4.734
  528SOL    HW1 1719   0.632   1.566   4.718
  528SOL    HW2 1720   0.484   1.545   4.745
  529SOL     OW 1721   0.969   0.786   5.001
  529SOL    HW1 1722   0.890   0.834   5.026
  529SOL    HW2 1723   0.968   0.786   4.906
  530SOL     OW 1724   4.943   0.535   4.857
  530SOL    HW1 1725   4.890   0.558   4.933
  530SOL    HW2 1726   4.880   0.517   4.788
  531SOL     OW 1727   0.826   0.575   4.116
  531SOL    HW1 1728   0.747   0.618   4.084
  531SOL    HW2 1729   0.839   0.502   4.056
  532SOL     OW 1730   1.678   0.579   4.941
  532SOL    HW1 1731   1.681   0.675   4.940
  532SOL    HW2 1732   1.599   0.558   4.991
  533SOL     OW 1733   0.606   0.367   4.998
  533SOL    HW1 1734   0.675   0.367   5.064
  533SOL    HW2 1735   0.653   0.375   4.915
  534SOL     OW 1736   0.525   0.490   3.828
  534SOL    HW1 1737   0.563   0.560   3.882
  534SOL    HW2 1738   0.566   0.502   3.742
  535SOL     OW 1739   1.301   1.066   4.863
  535SOL    HW1 1740   1.241   1.041   4.933
  535SOL    HW2 1741   1.277   1.156   4.841
  536SOL     OW 1742   1.340   0.776   4.111
  536SOL    HW1 1743   1.247   0.757   4.115
  536SOL    HW2 1744   1.382   0.691   4.123
  537SOL     OW 1745   1.768   1.813   4.825
  537SOL    HW1 1746   1.796   1.902   4.845
  537SOL    HW2 1747   1.744   1.775   4.909
  538SOL     OW 1748   0.078   1.236   4.828
  538SOL    HW1 1749   0.075   1.310   4.889
  538SOL    HW2 1750  -0.014   1.212   4.815
  539SOL     OW 1751   1.606   0.074   4.303
  539SOL    HW1 1752   1.678   0.019   4.332
  539SOL    HW2 1753   1.591   0.134   4.377
  540SOL     OW 1754   1.389   1.510   4.155
  540SOL    HW1 1755   1.364   1.529   4.245
  540SOL    HW2 1756   1.340   1.431   4.132
  541SOL     OW 1757   1.273   0.967   4.437
  541SOL    HW1 1758   1.224   0.887   4.418
  541SOL    HW2 1759   1.300   0.999   4.350
  542SOL     OW 1760   0.637   1.594   3.835
  542SOL    HW1 1761   0.719   1.550   3.857
  542SOL    HW2 1762   0.573   1.523   3.827
  543SOL     OW 1763   1.686   1.781   0.078
  543SOL    HW1 1764   1.650   1.870   0.083
  543SOL    HW2 1765   1.662   1.741   0.162
  544SOL     OW 1766   1.850   0.196   4.661
  544SOL    HW1 1767   1.932   0.209   4.613
  544SOL    HW2 1768   1.877   0.174   4.750
  545SOL     OW 1769   0.264   0.404   4.395
  545SOL    HW1 1770   0.282   0.361   4.479
  545SOL    HW2 1771   0.350   0.414   4.353
  546SOL     OW 1772   1.208   1.514   3.722
  546SOL    HW1 1773   1.300   1.538   3.736
  546SOL    HW2 1774   1.207   1.467   3.639
  547SOL     OW 1775   0.788   0.961   0.123
  547SOL    HW1 1776   0.842   0.955   0.201
  547SOL    HW2 1777   0.781   1.055   0.105
  548SOL     OW 1778   0.913   0.823   3.886
  548SOL    HW1 1779   0.971   0.786   3.952
  548SOL    HW2 1780   0.901   0.752   3.823
  549SOL     OW 1781   1.483   1.557   3.735
  549SOL    HW1 1782   1.500   1.542   3.642
  549SOL    HW2 1783   1.519   1.479   3.778
  550SOL     OW 1784   1.096   1.163   4.525
  550SOL    HW1 1785   1.162   1.101   4.492
  550SOL    HW2 1786   1.015   1.112   4.528
  551SOL     OW 1787   1.000   0.304   4.682
  551SOL    HW1 1788   1.092   0.325   4.694
  551SOL    HW2 1789   1.000   0.223   4.631
  552SOL     OW 1790   0.525   1.487   4.204
  552SOL    HW1 1791   0.553   1.475   4.295
  552SOL    HW2 1792   0.588   1.437   4.152
  553SOL     OW 1793   1.820   0.351   0.040
  553SOL    HW1 1794   1.824   0.372   0.134
  553SOL    HW2 1795   1.779   0.428   0.001
  554SOL     OW 1796   0.244   1.341   3.972
  554SOL    HW1 1797   0.235   1.409   4.039
  554SOL    HW2 1798   0.281   1.266   4.019
  555SOL     OW 1799   0.001   0.234   3.716
  555SOL    HW1 1800  -0.003   0.302   3.783
  555SOL    HW2 1801   0.088   0.244   3.677
  556SOL     OW 1802   0.059   0.210   4.088
  556SOL    HW1 1803   0.112   0.167   4.154
  556SOL    HW2 1804   0.011   0.138   4.046
  557SOL     OW 1805   1.078   1.466   3.956
  557SOL    HW1 1806   1.131   1.410   4.014
  557SOL    HW2 1807   1.135   1.484   3.882
  558SOL     OW 1808   1.533   1.735   4.706
  558SOL    HW1 1809   1.619   1.757   4.740
  558SOL    HW2 1810   1.551   1.676   4.633
  559SOL     OW 1811   1.664   0.861   4.945
  559SOL    HW1 1812   1.721   0.902   5.010
  559SOL    HW2 1813   1.669   0.919   4.869
  560SOL     OW 1814   1.227   0.252   4.067
  560SOL    HW1 1815   1.141   0.232   4.102
  560SOL    HW2 1816   1.280   0.175   4.087
  561SOL     OW 1817   0.590   0.720   4.352
  561SOL    HW1 1818   0.625   0.806   4.371
  561SOL    HW2 1819   0.515   0.736   4.295
  562SOL     OW 1820   1.813   0.981   0.149
  562SOL    HW1 1821   1.877   1.051   0.162
  562SOL    HW2 1822   1.848   0.907   0.199
  563SOL     OW 1823   0.858   1.390   3.819
  563SOL    HW1 1824   0.929   1.407   3.881
  563SOL    HW2 1825   0.875   1.450   3.746
  564SOL     OW 1826   0.631   1.861   4.837
  564SOL    HW1 1827   0.726   1.850   4.840
  564SOL    HW2 1828   0.597   1.776   4.809
  565SOL     OW 1829   0.880   0.995   4.575
  565SOL    HW1 1830   0.919   0.925   4.627
  565SOL    HW2 1831   0.838   1.052   4.640
  566SOL     OW 1832   1.046   0.964   3.690
  566SOL    HW1 1833   0.999   0.928   3.765
  566SOL    HW2 1834   1.133   0.924   3.696
  567SOL     OW 1835   1.875   1.475   4.508
  567SOL    HW1 1836   1.880   1.564   4.543
  567SOL    HW2 1837   1.907   1.483   4.419
  568SOL     OW 1838   0.020   1.074   4.339
  568SOL    HW1 1839   0.068   1.145   4.382
  568SOL    HW2 1840  -0.070   1.085   4.368
  569SOL     OW 1841   1.943   0.139   4.918
  569SOL    HW1 1842   2.035   0.156   4.935
  569SOL    HW2 1843   1.896   0.209   4.964
  570SOL     OW 1844   0.514   0.449   4.299
  570SOL    HW1 1845   0.542   0.540   4.299
  570SOL    HW2 1846   0.549   0.413   4.217
  571SOL     OW 1847   1.715   1.470   4.748
  571SOL    HW1 1848   1.620   1.461   4.754
  571SOL    HW2 1849   1.731   1.488   4.656
  572SOL     OW 1850   0.853   1.568   4.327
  572SOL    HW1 1851   0.878   1.633   4.393
  572SOL    HW2 1852   0.777   1.524   4.365
  573SOL     OW 1853   1.440   0.178   4.761
  573SOL    HW1 1854   1.374   0.246   4.746
  573SOL    HW2 1855   1.391   0.096   4.758
  574SOL     OW 1856   0.970   0.091   4.893
  574SOL    HW1 1857   1.057   0.057   4.871
  574SOL    HW2 1858   0.962   0.172   4.843
  575SOL     OW 1859   0.714   1.342   4.068
  575SOL    HW1 1860   0.689   1.252   4.090
  575SOL    HW2 1861   0.753   1.334   3.981
  576SOL     OW 1862   1.419   4.962   3.845
  576SOL    HW1 1863   1.396   4.991   3.933
  576SOL    HW2 1864   1.458   4.876   3.857
  577SOL     OW 1865   1.306   0.556   4.504
  577SOL    HW1 1866   1.239   0.615   4.469
  577SOL    HW2 1867   1.389   0.592   4.472
  578SOL     OW 1868   1.611   0.231   4.539
  578SOL    HW1 1869   1.548   0.215   4.609
  578SOL    HW2 1870   1.697   0.217   4.579
  579SOL     OW 1871   4.964   1.180   4.084
  579SOL    HW1 1872   4.940   1.111   4.023
  579SOL    HW2 1873   4.987   1.133   4.165
  580SOL     OW 1874   0.939   1.669   4.081
  580SOL    HW1 1875   0.991   1.601   4.039
  580SOL    HW2 1876   0.904   1.626   4.160
  581SOL     OW 1877   0.252   2.594   0.129
  581SOL    HW1 1878   0.274   2.647   0.206
  581SOL    HW2 1879   0.268   2.652   0.055
  582SOL     OW 1880   0.150   2.096   0.987
  582SOL    HW1 1881   0.165   2.059   1.074
  582SOL    HW2 1882   0.133   2.020   0.932
  583SOL     OW 1883   4.843   2.116   0.580
  583SOL    HW1 1884   4.825   2.063   0.658
  583SOL    HW2 1885   4.852   2.205   0.613
  584SOL     OW 1886   0.629   3.132   1.224
  584SOL    HW1 1887   0.539   3.122   1.195
  584SOL    HW2 1888   0.682   3.085   1.160
  585SOL     OW 1889   1.517   3.409   0.745
  585SOL    HW1 1890   1.587   3.469   0.770
  585SOL    HW2 1891   1.480   3.379   0.829
  586SOL     OW 1892   1.118   2.590   0.664
  586SOL    HW1 1893   1.166   2.671   0.647
  586SOL    HW2 1894   1.086   2.599   0.754
  587SOL     OW 1895   1.712   2.498   0.183
  587SOL    HW1 1896   1.654   2.465   0.252
  587SOL    HW2 1897   1.701   2.436   0.111
  588SOL     OW 1898   0.823   3.015   1.066
  588SOL    HW1 1899   0.914   3.010   1.095
  588SOL    HW2 1900   0.808   2.932   1.021
  589SOL     OW 1901   0.808   2.721   1.847
  589SOL    HW1 1902   0.769   2.645   1.805
  589SOL    HW2 1903   0.881   2.746   1.790
  590SOL     OW 1904   0.735   2.838   0.671
  590SOL    HW1 1905   0.666   2.904   0.684
  590SOL    HW2 1906   0.689   2.761   0.640
  591SOL     OW 1907   0.710   3.051   1.765
  591SOL    HW1 1908   0.627   3.078   1.805
  591SOL    HW2 1909   0.691   2.964   1.729
  592SOL     OW 1910   0.344   3.167   1.148
  592SOL    HW1 1911   0.373   3.203   1.064
  592SOL    HW2 1912   0.338   3.243   1.206
  593SOL     OW 1913   1.500   3.414   1.362
  593SOL    HW1 1914   1.547   3.332   1.348
  593SOL    HW2 1915   1.568   3.478   1.381
  594SOL     OW 1916   0.404   2.329   1.649
  594SOL    HW1 1917   0.417   2.416   1.612
  594SOL    HW2 1918   0.492   2.299   1.673
  595SOL     OW 1919   1.514   2.292   0.767
  595SOL    HW1 1920   1.425   2.274   0.736
  595SOL    HW2 1921   1.548   2.357   0.706
  596SOL     OW 1922   0.176   3.471   0.572
  596SOL    HW1 1923   0.086   3.478   0.604
  596SOL    HW2 1924   0.177   3.523   0.492
  597SOL     OW 1925   1.191   3.216   1.738
  597SOL    HW1 1926   1.149   3.300   1.720
  597SOL    HW2 1927   1.121   3.160   1.772
  598SOL     OW 1928   0.306   3.255   0.462
  598SOL    HW1 1929   0.386   3.307   0.468
  598SOL    HW2 1930   0.238   3.310   0.502
  599SOL     OW 1931   0.307   2.950   0.865
  599SOL    HW1 1932   0.324   2.858   0.886
  599SOL    HW2 1933   0.384   2.979   0.817
  600SOL     OW 1934   0.656   3.635   1.350
  600SOL    HW1 1935   0.724   3.588   1.397
  600SOL    HW2 1936   0.626   3.573   1.283
  601SOL     OW 1937   0.529   2.946   0.073
  601SOL    HW1 1938   0.522   2.995   0.155
  601SOL    HW2 1939   0.613   2.901   0.080
  602SOL     OW 1940   1.579   2.009   1.460
  602SOL    HW1 1941   1.585   2.046   1.548
  602SOL    HW2 1942   1.607   1.918   1.471
  603SOL     OW 1943   0.081   2.550   0.585
  603SOL    HW1 1944   0.024   2.566   0.511
  603SOL    HW2 1945   0.169   2.541   0.547
  604SOL     OW 1946   1.929   3.698   0.366
  604SOL    HW1 1947   2.014   3.678   0.406
  604SOL    HW2 1948   1.865   3.673   0.432
  605SOL     OW 1949   0.030   3.511   0.116
  605SOL    HW1 1950   0.106   3.453   0.106
  605SOL    HW2 1951  -0.002   3.524   0.027
  606SOL     OW 1952   1.680   2.733   0.634
  606SOL    HW1 1953   1.740   2.771   0.698
  606SOL    HW2 1954   1.734   2.716   0.557
  607SOL     OW 1955   1.662   3.111   0.376
  607SOL    HW1 1956   1.651   3.143   0.465
  607SOL    HW2 1957   1.703   3.183   0.329
  608SOL     OW 1958   0.164   2.625   1.628
  608SOL    HW1 1959   0.159   2.564   1.701
  608SOL    HW2 1960   0.117   2.582   1.557
  609SOL     OW 1961   0.588   3.279   0.704
  609SOL    HW1 1962   0.555   3.321   0.625
  609SOL    HW2 1963   0.674   3.318   0.718
  610SOL     OW 1964   1.285   3.080   1.524
  610SOL    HW1 1965   1.256   3.137   1.594
  610SOL    HW2 1966   1.237   3.110   1.447
  611SOL     OW 1967   0.816   1.904   0.557
  611SOL    HW1 1968   0.891   1.887   0.614
  611SOL    HW2 1969   0.831   1.993   0.525
  612SOL     OW 1970   0.276   2.891   1.230
  612SOL    HW1 1971   0.312   2.970   1.188
  612SOL    HW2 1972   0.213   2.858   1.167
  613SOL     OW 1973   1.518   2.824   0.139
  613SOL    HW1 1974   1.448   2.773   0.180
  613SOL    HW2 1975   1.474   2.902   0.106
  614SOL     OW 1976   1.155   3.638   1.728
  614SOL    HW1 1977   1.093   3.566   1.712
  614SOL    HW2 1978   1.230   3.618   1.672
  615SOL     OW 1979   0.338   2.137   1.827
  615SOL    HW1 1980   0.355   2.198   1.755
  615SOL    HW2 1981   0.369   2.053   1.794
  616SOL     OW 1982   1.485   3.237   0.980
  616SOL    HW1 1983   1.567   3.278   1.007
  616SOL    HW2 1984   1.422   3.262   1.047
  617SOL     OW 1985   1.752   3.643   0.570
  617SOL    HW1 1986   1.755   3.600   0.656
  617SOL    HW2 1987   1.754   3.737   0.590
  618SOL     OW 1988   0.616   2.703   0.294
  618SOL    HW1 1989   0.657   2.623   0.329
  618SOL    HW2 1990   0.666   2.722   0.215
  619SOL     OW 1991   1.194   2.250   0.941
  619SOL    HW1 1992   1.126   2.183   0.936
  619SOL    HW2 1993   1.209   2.276   0.850
  620SOL     OW 1994   1.592   3.552   0.363
  620SOL    HW1 1995   1.515   3.514   0.405
  620SOL    HW2 1996   1.648   3.579   0.436
  621SOL     OW 1997   0.776   2.495   1.453
  621SOL    HW1 1998   0.849   2.529   1.402
  621SOL    HW2 1999   0.757   2.409   1.414
  622SOL     OW 2000   1.405   2.362   1.726
  622SOL    HW1 2001   1.418   2.451   1.695
  622SOL    HW2 2002   1.406   2.369   1.821
  623SOL     OW 2003   1.004   2.797   1.657
  623SOL    HW1 2004   1.040   2.712   1.635
  623SOL    HW2 2005   0.973   2.833   1.574
  624SOL     OW 2006   0.973   2.151   1.213
  624SOL    HW1 2007   1.062   2.184   1.224
  624SOL    HW2 2008   0.971   2.117   1.124
  625SOL     OW 2009   1.103   2.569   0.384
  625SOL    HW1 2010   1.104   2.573   0.479
  625SOL    HW2 2011   1.054   2.646   0.356
  626SOL     OW 2012   0.126   2.598   0.850
  626SOL    HW1 2013   0.144   2.508   0.876
  626SOL    HW2 2014   0.102   2.592   0.757
  627SOL     OW 2015   0.204   3.654   1.512
  627SOL    HW1 2016   0.187   3.739   1.472
  627SOL    HW2 2017   0.141   3.595   1.471
  628SOL     OW 2018   0.879   2.290   0.149
  628SOL    HW1 2019   0.965   2.302   0.189
  628SOL    HW2 2020   0.878   2.198   0.120
  629SOL     OW 2021   1.693   2.527   1.711
  629SOL    HW1 2022   1.698   2.521   1.807
  629SOL    HW2 2023   1.608   2.568   1.694
  630SOL     OW 2024   1.398   3.035   0.484
  630SOL    HW1 2025   1.454   3.076   0.550
  630SOL    HW2 2026   1.455   3.020   0.409
  631SOL     OW 2027   0.490   2.107   0.883
  631SOL    HW1 2028   0.513   2.123   0.974
  631SOL    HW2 2029   0.460   2.016   0.881
  632SOL     OW 2030   1.059   3.386   0.578
  632SOL    HW1 2031   1.038   3.467   0.531
  632SOL    HW2 2032   1.112   3.335   0.517
  633SOL     OW 2033   0.300   3.511   0.815
  633SOL    HW1 2034   0.260   3.596   0.831
  633SOL    HW2 2035   0.272   3.488   0.726
  634SOL     OW 2036   1.824   2.846   0.844
  634SOL    HW1 2037   1.900   2.883   0.889
  634SOL    HW2 2038   1.753   2.908   0.862
  635SOL     OW 2039   1.356   3.537   1.575
  635SOL    HW1 2040   1.435   3.520   1.626
  635SOL    HW2 2041   1.373   3.496   1.490
  636SOL     OW 2042   0.351   2.772   0.325
  636SOL    HW1 2043   0.359   2.850   0.381
  636SOL    HW2 2044   0.442   2.750   0.302
  637SOL     OW 2045   1.455   2.809   0.774
  637SOL    HW1 2046   1.378   2.817   0.719
  637SOL    HW2 2047   1.524   2.778   0.715
  638SOL     OW 2048   0.449   3.136   1.839
  638SOL    HW1 2049   0.360   3.150   1.871
  638SOL    HW2 2050   0.444   3.156   1.745
  639SOL     OW 2051   1.101   3.777   0.287
  639SOL    HW1 2052   1.024   3.762   0.231
  639SOL    HW2 2053   1.172   3.733   0.241
  640SOL     OW 2054   0.076   2.172   1.445
  640SOL    HW1 2055   0.092   2.088   1.489
  640SOL    HW2 2056  -0.016   2.168   1.418
  641SOL     OW 2057   1.597   3.215   0.022
  641SOL    HW1 2058   1.664   3.232   0.088
  641SOL    HW2 2059   1.535   3.287   0.032
  642SOL     OW 2060   0.526   3.661   0.376
  642SOL    HW1 2061   0.588   3.639   0.307
  642SOL    HW2 2062   0.454   3.704   0.331
  643SOL     OW 2063   0.230   3.677   1.193
  643SOL    HW1 2064   0.149   3.663   1.143
  643SOL    HW2 2065   0.262   3.589   1.211
  644SOL     OW 2066   0.988   3.588   0.943
  644SOL    HW1 2067   1.019   3.648   0.875
  644SOL    HW2 2068   1.039   3.508   0.930
  645SOL     OW 2069   0.342   2.555   0.487
  645SOL    HW1 2070   0.419   2.573   0.542
  645SOL    HW2 2071   0.338   2.629   0.427
  646SOL     OW 2072   1.584   2.148   1.701
  646SOL    HW1 2073   1.586   2.127   1.794
  646SOL    HW2 2074   1.517   2.216   1.693
  647SOL     OW 2075   0.630   2.024   0.060
  647SOL    HW1 2076   0.724   2.035   0.073
  647SOL    HW2 2077   0.622   1.959  -0.009
  648SOL     OW 2078   0.640   2.217   1.749
  648SOL    HW1 2079   0.641   2.150   1.817
  648SOL    HW2 2080   0.679   2.294   1.791
  649SOL     OW 2081   0.836   3.370   1.218
  649SOL    HW1 2082   0.743   3.383   1.198
  649SOL    HW2 2083   0.838   3.295   1.277
  650SOL     OW 2084   1.299   2.479   1.270
  650SOL    HW1 2085   1.215   2.520   1.248
  650SOL    HW2 2086   1.282   2.385   1.264
  651SOL     OW 2087   0.874   3.264   0.959
  651SOL    HW1 2088   0.881   3.318   1.038
  651SOL    HW2 2089   0.841   3.180   0.991
  652SOL     OW 2090   0.872   2.345   0.891
  652SOL    HW1 2091   0.894   2.255   0.914
  652SOL    HW2 2092   0.816   2.376   0.962
  653SOL     OW 2093   0.529   1.895   0.507
  653SOL    HW1 2094   0.618   1.908   0.538
  653SOL    HW2 2095   0.519   1.957   0.434
  654SOL     OW 2096   1.375   3.049   0.069
  654SOL    HW1 2097   1.309   3.113   0.098
  654SOL    HW2 2098   1.450   3.103   0.044
  655SOL     OW 2099   0.323   1.839   0.196
  655SOL    HW1 2100   0.371   1.917   0.223
  655SOL    HW2 2101   0.323   1.842   0.100
  656SOL     OW 2102   0.912   2.155   0.509
  656SOL    HW1 2103   0.894   2.244   0.541
  656SOL    HW2 2104   1.007   2.154   0.494
  657SOL     OW 2105   1.125   2.576   1.542
  657SOL    HW1 2106   1.213   2.611   1.526
  657SOL    HW2 2107   1.084   2.575   1.456
  658SOL     OW 2108   1.162   3.392   0.835
  658SOL    HW1 2109   1.163   3.298   0.854
  658SOL    HW2 2110   1.136   3.397   0.743
  659SOL     OW 2111   0.525   3.012   0.709
  659SOL    HW1 2112   0.551   3.104   0.711
  659SOL    HW2 2113   0.475   3.003   0.628
  660SOL     OW 2114   1.212   3.672   0.540
  660SOL    HW1 2115   1.169   3.696   0.622
  660SOL    HW2 2116   1.151   3.698   0.472
  661SOL     OW 2117   0.991   2.455   4.947
  661SOL    HW1 2118   0.947   2.397   5.009
  661SOL    HW2 2119   1.004   2.401   4.869
  662SOL     OW 2120   0.044   2.450   1.457
  662SOL    HW1 2121   0.067   2.476   1.367
  662SOL    HW2 2122   0.065   2.356   1.460
  663SOL     OW 2123   0.549   2.117   1.157
  663SOL    HW1 2124   0.615   2.168   1.204
  663SOL    HW2 2125   0.468   2.130   1.206
  664SOL     OW 2126   0.891   2.411   0.617
  664SOL    HW1 2127   0.872   2.388   0.708
  664SOL    HW2 2128   0.959   2.477   0.623
  665SOL     OW 2129   1.036   1.876   0.717
  665SOL    HW1 2130   1.054   1.835   0.801
  665SOL    HW2 2131   1.116   1.864   0.666
  666SOL     OW 2132   1.603   3.010   0.886
  666SOL    HW1 2133   1.538   2.948   0.852
  666SOL    HW2 2134   1.551   3.085   0.915
  667SOL     OW 2135   1.405   2.431   0.976
  667SOL    HW1 2136   1.322   2.384   0.983
  667SOL    HW2 2137   1.452   2.387   0.906
  668SOL     OW 2138   1.815   2.656   0.407
  668SOL    HW1 2139   1.807   2.739   0.361
  668SOL    HW2 2140   1.799   2.590   0.340
  669SOL     OW 2141   0.643   3.304   0.238
  669SOL    HW1 2142   0.715   3.242   0.253
  669SOL    HW2 2143   0.567   3.249   0.218
  670SOL     OW 2144   1.589   3.165   0.639
  670SOL    HW1 2145   1.620   3.119   0.716
  670SOL    HW2 2146   1.565   3.252   0.670
  671SOL     OW 2147   1.390   2.375   0.129
  671SOL    HW1 2148   1.433   2.376   0.215
  671SOL    HW2 2149   1.458   2.347   0.068
  672SOL     OW 2150   0.478   2.051   0.289
  672SOL    HW1 2151   0.459   2.141   0.313
  672SOL    HW2 2152   0.541   2.058   0.218
  673SOL     OW 2153   1.798   3.089   1.665
  673SOL    HW1 2154   1.706   3.079   1.637
  673SOL    HW2 2155   1.836   3.003   1.652
  674SOL     OW 2156   1.122   3.181   1.321
  674SOL    HW1 2157   1.034   3.191   1.357
  674SOL    HW2 2158   1.111   3.123   1.246
  675SOL     OW 2159   1.597   3.480   1.695
  675SOL    HW1 2160   1.679   3.432   1.693
  675SOL    HW2 2161   1.564   3.468   1.784
  676SOL     OW 2162   1.098   3.018   1.104
  676SOL    HW1 2163   1.172   2.963   1.130
  676SOL    HW2 2164   1.117   3.041   1.013
  677SOL     OW 2165   1.603   2.951   1.161
  677SOL    HW1 2166   1.641   2.866   1.179
  677SOL    HW2 2167   1.616   2.964   1.067
  678SOL     OW 2168   0.953   2.027   1.460
  678SOL    HW1 2169   0.862   2.050   1.480
  678SOL    HW2 2170   0.969   2.068   1.374
  679SOL     OW 2171   0.990   3.039   1.797
  679SOL    HW1 2172   0.897   3.063   1.801
  679SOL    HW2 2173   0.992   2.955   1.751
  680SOL     OW 2174   0.631   2.987   0.346
  680SOL    HW1 2175   0.716   3.030   0.338
  680SOL    HW2 2176   0.651   2.893   0.343
  681SOL     OW 2177   0.425   2.661   1.298
  681SOL    HW1 2178   0.493   2.671   1.232
  681SOL    HW2 2179   0.369   2.738   1.286
  682SOL     OW 2180   1.239   2.219   1.207
  682SOL    HW1 2181   1.314   2.162   1.220
  682SOL    HW2 2182   1.232   2.229   1.112
  683SOL     OW 2183   0.074   3.443   1.387
  683SOL    HW1 2184   0.157   3.431   1.340
  683SOL    HW2 2185   0.024   3.363   1.368
  684SOL     OW 2186   0.393   2.999   0.471
  684SOL    HW1 2187   0.351   3.085   0.468
  684SOL    HW2 2188   0.474   3.009   0.421
  685SOL     OW 2189   0.476   2.408   0.833
  685SOL    HW1 2190   0.385   2.379   0.843
  685SOL    HW2 2191   0.526   2.326   0.831
  686SOL     OW 2192   1.234   3.251   0.412
  686SOL    HW1 2193   1.296   3.319   0.439
  686SOL    HW2 2194   1.276   3.169   0.438
  687SOL     OW 2195   1.316   3.332   1.181
  687SOL    HW1 2196   1.373   3.366   1.250
  687SOL    HW2 2197   1.246   3.287   1.227
  688SOL     OW 2198   1.628   2.466   0.597
  688SOL    HW1 2199   1.721   2.444   0.606
  688SOL    HW2 2200   1.625   2.561   0.608
  689SOL     OW 2201   0.343   3.423   1.280
  689SOL    HW1 2202   0.367   3.436   1.371
  689SOL    HW2 2203   0.423   3.442   1.230
  690SOL     OW 2204   0.433   2.591   1.561
  690SOL    HW1 2205   0.347   2.618   1.593
  690SOL    HW2 2206   0.430   2.608   1.467
  691SOL     OW 2207   1.437   2.627   1.663
  691SOL    HW1 2208   1.395   2.698   1.711
  691SOL    HW2 2209   1.427   2.651   1.571
  692SOL     OW 2210   1.081   2.057   1.700
  692SOL    HW1 2211   1.100   2.151   1.706
  692SOL    HW2 2212   1.039   2.047   1.614
  693SOL     OW 2213   0.449   1.893   1.762
  693SOL    HW1 2214   0.527   1.924   1.809
  693SOL    HW2 2215   0.396   1.850   1.830
  694SOL     OW 2216   0.588   2.688   1.078
  694SOL    HW1 2217   0.662   2.730   1.036
  694SOL    HW2 2218   0.517   2.693   1.014
  695SOL     OW 2219   1.418   2.697   1.021
  695SOL    HW1 2220   1.400   2.605   1.002
  695SOL    HW2 2221   1.432   2.737   0.935
  696SOL     OW 2222   1.136   2.338   0.242
  696SOL    HW1 2223   1.123   2.423   0.285
  696SOL    HW2 2224   1.214   2.350   0.188
  697SOL     OW 2225   0.312   2.158   1.295
  697SOL    HW1 2226   0.243   2.179   1.358
  697SOL    HW2 2227   0.289   2.072   1.261
  698SOL     OW 2228   4.956   3.200   1.347
  698SOL    HW1 2229   4.983   3.171   1.260
  698SOL    HW2 2230   5.009   3.148   1.407
  699SOL     OW 2231   0.749   2.465   1.109
  699SOL    HW1 2232   0.825   2.510   1.146
  699SOL    HW2 2233   0.684   2.535   1.097
  700SOL     OW 2234   1.794   2.787   1.895
  700SOL    HW1 2235   1.786   2.693   1.904
  700SOL    HW2 2236   1.708   2.821   1.922
  701SOL     OW 2237   0.259   1.945   0.563
  701SOL    HW1 2238   0.351   1.922   0.550
  701SOL    HW2 2239   0.215   1.861   0.577
  702SOL     OW 2240   1.541   2.363   0.358
  702SOL    HW1 2241   1.526   2.269   0.374
  702SOL    HW2 2242   1.563   2.398   0.444
  703SOL     OW 2243   1.008   2.590   0.918
  703SOL    HW1 2244   1.029   2.603   1.011
  703SOL    HW2 2245   0.972   2.502   0.914
  704SOL     OW 2246   1.001   3.420   1.681
  704SOL    HW1 2247   0.956   3.444   1.599
  704SOL    HW2 2248   0.933   3.375   1.732
  705SOL     OW 2249   1.842   3.357   1.645
  705SOL    HW1 2250   1.908   3.359   1.714
  705SOL    HW2 2251   1.816   3.265   1.639
  706SOL     OW 2252   0.373   2.872   1.872
  706SOL    HW1 2253   0.444   2.819   1.908
  706SOL    HW2 2254   0.410   2.960   1.864
  707SOL     OW 2255   1.588   2.045   0.097
  707SOL    HW1 2256   1.564   2.054   0.190
  707SOL    HW2 2257   1.509   2.013   0.055
  708SOL     OW 2258   1.317   2.600  -0.009
  708SOL    HW1 2259   1.331   2.514   0.029
  708SOL    HW2 2260   1.296   2.657   0.065
  709SOL     OW 2261   1.079   3.115   0.836
  709SOL    HW1 2262   1.000   3.162   0.862
  709SOL    HW2 2263   1.051   3.064   0.759
  710SOL     OW 2264   0.388   2.663   0.890
  710SOL    HW1 2265   0.294   2.652   0.877
  710SOL    HW2 2266   0.424   2.575   0.884
  711SOL     OW 2267   0.221   2.356   0.934
  711SOL    HW1 2268   0.261   2.371   1.019
  711SOL    HW2 2269   0.189   2.266   0.938
  712SOL     OW 2270   1.134   2.334   1.687
  712SOL    HW1 2271   1.229   2.329   1.691
  712SOL    HW2 2272   1.116   2.408   1.629
  713SOL     OW 2273   1.314   1.896   1.429
  713SOL    HW1 2274   1.395   1.943   1.446
  713SOL    HW2 2275   1.307   1.892   1.334
  714SOL     OW 2276   4.947   3.146   0.296
  714SOL    HW1 2277   4.861   3.138   0.255
  714SOL    HW2 2278   5.008   3.155   0.222
  715SOL     OW 2279   0.083   3.709   0.798
  715SOL    HW1 2280   0.061   3.694   0.890
  715SOL    HW2 2281   0.034   3.643   0.750
  716SOL     OW 2282   0.448   3.322   0.940
  716SOL    HW1 2283   0.389   3.388   0.904
  716SOL    HW2 2284   0.501   3.293   0.865
  717SOL     OW 2285   0.096   2.545   1.207
  717SOL    HW1 2286   0.178   2.499   1.186
  717SOL    HW2 2287   0.103   2.629   1.162
  718SOL     OW 2288   0.157   2.397   1.780
  718SOL    HW1 2289   0.226   2.357   1.727
  718SOL    HW2 2290   0.107   2.324   1.816
  719SOL     OW 2291   1.283   2.862   1.693
  719SOL    HW1 2292   1.191   2.842   1.705
  719SOL    HW2 2293   1.285   2.926   1.622
  720SOL     OW 2294   0.758   2.475   0.366
  720SOL    HW1 2295   0.795   2.452   0.451
  720SOL    HW2 2296   0.794   2.409   0.306
  721SOL     OW 2297   0.186   3.405   1.724
  721SOL    HW1 2298   0.256   3.407   1.659
  721SOL    HW2 2299   0.189   3.491   1.765
  722SOL     OW 2300   0.739   2.266   1.291
  722SOL    HW1 2301   0.823   2.224   1.272
  722SOL    HW2 2302   0.732   2.336   1.226
  723SOL     OW 2303   0.905   3.532   1.440
  723SOL    HW1 2304   0.954   3.614   1.429
  723SOL    HW2 2305   0.912   3.488   1.355
  724SOL     OW 2306   0.405   2.361   0.126
  724SOL    HW1 2307   0.404   2.341   0.220
  724SOL    HW2 2308   0.347   2.437   0.117
  725SOL     OW 2309   0.179   3.050   1.449
  725SOL    HW1 2310   0.173   2.997   1.529
  725SOL    HW2 2311   0.211   2.989   1.383
  726SOL     OW 2312   1.330   2.887   1.191
  726SOL    HW1 2313   1.413   2.935   1.196
  726SOL    HW2 2314   1.348   2.815   1.130
  727SOL     OW 2315   1.290   2.721   0.242
  727SOL    HW1 2316   1.262   2.646   0.295
  727SOL    HW2 2317   1.224   2.788   0.256
  728SOL     OW 2318   1.756   3.570   1.190
  728SOL    HW1 2319   1.748   3.580   1.285
  728SOL    HW2 2320   1.684   3.622   1.155
  729SOL     OW 2321   1.353   3.528   0.990
  729SOL    HW1 2322   1.337   3.469   1.064
  729SOL    HW2 2323   1.290   3.501   0.923
  730SOL     OW 2324   0.071   3.109   1.116
  730SOL    HW1 2325   0.070   3.120   1.021
  730SOL    HW2 2326   0.163   3.122   1.141
  731SOL     OW 2327   0.627   3.529   1.686
  731SOL    HW1 2328   0.664   3.543   1.773
  731SOL    HW2 2329   0.670   3.449   1.655
  732SOL     OW 2330   0.908   2.026   0.057
  732SOL    HW1 2331   0.994   2.016   0.099
  732SOL    HW2 2332   0.908   1.960  -0.013
  733SOL     OW 2333   1.750   1.969   0.546
  733SOL    HW1 2334   1.760   2.036   0.614
  733SOL    HW2 2335   1.665   1.989   0.506
  734SOL     OW 2336   1.382   3.457   0.513
  734SOL    HW1 2337   1.423   3.443   0.599
  734SOL    HW2 2338   1.323   3.532   0.527
  735SOL     OW 2339   0.199   3.654   1.829
  735SOL    HW1 2340   0.245   3.688   1.905
  735SOL    HW2 2341   0.217   3.718   1.759
  736SOL     OW 2342   1.238   2.839   0.611
  736SOL    HW1 2343   1.152   2.880   0.621
  736SOL    HW2 2344   1.286   2.898   0.553
  737SOL     OW 2345   0.841   3.147   1.391
  737SOL    HW1 2346   0.759   3.137   1.345
  737SOL    HW2 2347   0.872   3.058   1.406
  738SOL     OW 2348   0.671   3.559   0.162
  738SOL    HW1 2349   0.640   3.569   0.072
  738SOL    HW2 2350   0.659   3.466   0.181
  739SOL     OW 2351   1.696   3.594   1.468
  739SOL    HW1 2352   1.783   3.614   1.503
  739SOL    HW2 2353   1.648   3.558   1.543
  740SOL     OW 2354   1.916   2.028   0.901
  740SOL    HW1 2355   1.999   2.075   0.892
  740SOL    HW2 2356   1.856   2.073   0.841
  741SOL     OW 2357   0.383   2.177   0.636
  741SOL    HW1 2358   0.423   2.156   0.721
  741SOL    HW2 2359   0.325   2.103   0.619
  742SOL     OW 2360   1.134   3.495   0.060
  742SOL    HW1 2361   1.067   3.505   0.127
  742SOL    HW2 2362   1.107   3.554  -0.010
  743SOL     OW 2363   0.905   2.879   1.412
  743SOL    HW1 2364   0.819   2.842   1.431
  743SOL    HW2 2365   0.943   2.820   1.347
  744SOL     OW 2366   1.404   3.423   0.025
  744SOL    HW1 2367   1.462   3.490   0.062
  744SOL    HW2 2368   1.316   3.458   0.040
  745SOL     OW 2369   0.387   3.189   1.584
  745SOL    HW1 2370   0.400   3.278   1.551
  745SOL    HW2 2371   0.321   3.152   1.526
  746SOL     OW 2372   1.631   3.180   1.310
  746SOL    HW1 2373   1.727   3.187   1.307
  746SOL    HW2 2374   1.611   3.105   1.254
  747SOL     OW 2375   0.984   2.949   0.615
  747SOL    HW1 2376   0.899   2.911   0.637
  747SOL    HW2 2377   0.991   2.938   0.520
  748SOL     OW 2378   0.989   2.063   0.937
  748SOL    HW1 2379   1.011   1.977   0.973
  748SOL    HW2 2380   0.974   2.047   0.844
  749SOL     OW 2381   0.531   3.403   0.468
  749SOL    HW1 2382   0.523   3.497   0.453
  749SOL    HW2 2383   0.580   3.370   0.393
  750SOL     OW 2384   1.664   2.290   1.382
  750SOL    HW1 2385   1.713   2.298   1.463
  750SOL    HW2 2386   1.629   2.200   1.383
  751SOL     OW 2387   0.400   3.190   0.211
  751SOL    HW1 2388   0.351   3.205   0.292
  751SOL    HW2 2389   0.352   3.242   0.145
  752SOL     OW 2390   0.183   2.897   1.677
  752SOL    HW1 2391   0.248   2.889   1.746
  752SOL    HW2 2392   0.159   2.807   1.656
  753SOL     OW 2393   0.693   2.089   1.510
  753SOL    HW1 2394   0.670   2.131   1.593
  753SOL    HW2 2395   0.681   2.157   1.444
  754SOL     OW 2396   0.085   2.233   0.031
  754SOL    HW1 2397   0.018   2.200   0.090
  754SOL    HW2 2398   0.163   2.181   0.051
  755SOL     OW 2399   1.364   2.704   1.405
  755SOL    HW1 2400   1.334   2.776   1.350
  755SOL    HW2 2401   1.345   2.625   1.354
  756SOL     OW 2402   0.024   2.024   0.402
  756SOL    HW1 2403   0.107   2.027   0.450
  756SOL    HW2 2404  -0.041   2.056   0.464
  757SOL     OW 2405   1.183   3.235   0.144
  757SOL    HW1 2406   1.196   3.240   0.239
  757SOL    HW2 2407   1.176   3.326   0.117
  758SOL     OW 2408   0.678   2.752   1.487
  758SOL    HW1 2409   0.584   2.744   1.501
  758SOL    HW2 2410   0.708   2.662   1.473
  759SOL     OW 2411   1.543   3.710   1.078
  759SOL    HW1 2412   1.476   3.649   1.047
  759SOL    HW2 2413   1.561   3.766   1.003
  760SOL     OW 2414   0.673   2.525   1.706
  760SOL    HW1 2415   0.587   2.554   1.677
  760SOL    HW2 2416   0.721   2.505   1.626
  761SOL     OW 2417   1.558   3.054   1.539
  761SOL    HW1 2418   1.581   3.106   1.462
  761SOL    HW2 2419   1.462   3.063   1.546
  762SOL     OW 2420   0.398   3.468   1.544
  762SOL    HW1 2421   0.477   3.495   1.590
  762SOL    HW2 2422   0.344   3.547   1.540
  763SOL     OW 2423   1.725   2.699   1.232
  763SOL    HW1 2424   1.818   2.719   1.218
  763SOL    HW2 2425   1.707   2.730   1.320
  764SOL     OW 2426   1.185   2.190   0.465
  764SOL    HW1 2427   1.170   2.237   0.383
  764SOL    HW2 2428   1.268   2.144   0.451
  765SOL     OW 2429   0.548   2.627   0.662
  765SOL    HW1 2430   0.560   2.538   0.696
  765SOL    HW2 2431   0.495   2.671   0.729
  766SOL     OW 2432   1.805   2.296   1.618
  766SOL    HW1 2433   1.767   2.375   1.657
  766SOL    HW2 2434   1.755   2.224   1.656
  767SOL     OW 2435   1.620   2.797   1.460
  767SOL    HW1 2436   1.529   2.770   1.444
  767SOL    HW2 2437   1.612   2.884   1.499
  768SOL     OW 2438   0.940   3.198   0.020
  768SOL    HW1 2439   1.023   3.209   0.066
  768SOL    HW2 2440   0.876   3.184   0.090
  769SOL     OW 2441   0.721   3.646   0.995
  769SOL    HW1 2442   0.813   3.620   0.983
  769SOL    HW2 2443   0.695   3.683   0.910
  770SOL     OW 2444   0.800   2.779   0.929
  770SOL    HW1 2445   0.876   2.721   0.927
  770SOL    HW2 2446   0.783   2.799   0.837
  771SOL     OW 2447   1.155   2.900   0.001
  771SOL    HW1 2448   1.103   2.897   0.081
  771SOL    HW2 2449   1.236   2.943   0.027
  772SOL     OW 2450   1.758   3.538   0.828
  772SOL    HW1 2451   1.831   3.586   0.866
  772SOL    HW2 2452   1.743   3.465   0.888
  773SOL     OW 2453   0.171   3.164   1.849
  773SOL    HW1 2454   0.173   3.242   1.794
  773SOL    HW2 2455   0.142   3.094   1.790
  774SOL     OW 2456   0.092   3.127   0.847
  774SOL    HW1 2457   0.169   3.070   0.843
  774SOL    HW2 2458   0.034   3.095   0.778
  775SOL     OW 2459   0.743   3.288   1.618
  775SOL    HW1 2460   0.736   3.213   1.677
  775SOL    HW2 2461   0.781   3.251   1.538
  776SOL     OW 2462   1.891   1.945   1.157
  776SOL    HW1 2463   1.952   2.002   1.205
  776SOL    HW2 2464   1.889   1.981   1.069
  777SOL     OW 2465   0.401   2.301   0.395
  777SOL    HW1 2466   0.399   2.253   0.478
  777SOL    HW2 2467   0.379   2.391   0.419
  778SOL     OW 2468   1.731   3.350   1.026
  778SOL    HW1 2469   1.747   3.415   1.095
  778SOL    HW2 2470   1.807   3.291   1.030
  779SOL     OW 2471   0.329   2.410   1.179
  779SOL    HW1 2472   0.385   2.470   1.229
  779SOL    HW2 2473   0.337   2.326   1.225
  780SOL     OW 2474   0.829   3.403   0.726
  780SOL    HW1 2475   0.909   3.389   0.676
  780SOL    HW2 2476   0.848   3.366   0.812
  781SOL     OW 2477   1.467   2.077   1.216
  781SOL    HW1 2478   1.520   2.042   1.288
  781SOL    HW2 2479   1.530   2.111   1.153
  782SOL     OW 2480   1.049   1.797   0.988
  782SOL    HW1 2481   1.122   1.764   1.039
  782SOL    HW2 2482   0.981   1.730   0.998
  783SOL     OW 2483   0.861   3.150   0.296
  783SOL    HW1 2484   0.913   3.070   0.291
  783SOL    HW2 2485   0.916   3.211   0.345
  784SOL     OW 2486   0.578   3.465   1.136
  784SOL    HW1 2487   0.625   3.533   1.087
  784SOL    HW2 2488   0.539   3.409   1.069
  785SOL     OW 2489   1.363   1.926  -0.002
  785SOL    HW1 2490   1.285   1.942   0.051
  785SOL    HW2 2491   1.371   1.831  -0.005
  786SOL     OW 2492   1.243   2.333   0.689
  786SOL    HW1 2493   1.219   2.282   0.612
  786SOL    HW2 2494   1.209   2.420   0.671
  787SOL     OW 2495   1.626   2.219   1.039
  787SOL    HW1 2496   1.711   2.264   1.039
  787SOL    HW2 2497   1.601   2.214   0.947
  788SOL     OW 2498   0.079   2.865   0.263
  788SOL    HW1 2499   0.062   2.947   0.308
  788SOL    HW2 2500   0.167   2.840   0.291
  789SOL     OW 2501   0.935   3.527   0.246
  789SOL    HW1 2502   0.929   3.560   0.336
  789SOL    HW2 2503   0.847   3.542   0.210
  790SOL     OW 2504   0.173   2.533   2.012
  790SOL    HW1 2505   0.092   2.509   2.057
  790SOL    HW2 2506   0.162   2.499   1.923
  791SOL     OW 2507   0.196   2.134   2.958
  791SOL    HW1 2508   0.250   2.194   2.907
  791SOL    HW2 2509   0.165   2.070   2.895
  792SOL     OW 2510   0.093   2.154   2.439
  792SOL    HW1 2511   0.176   2.149   2.485
  792SOL    HW2 2512   0.037   2.090   2.482
  793SOL     OW 2513   0.624   3.205   3.059
  793SOL    HW1 2514   0.657   3.143   2.995
  793SOL    HW2 2515   0.529   3.201   3.050
  794SOL     OW 2516   1.548   3.481   2.588
  794SOL    HW1 2517   1.507   3.452   2.669
  794SOL    HW2 2518   1.639   3.455   2.597
  795SOL     OW 2519   1.088   2.570   2.492
  795SOL    HW1 2520   1.006   2.523   2.505
  795SOL    HW2 2521   1.088   2.595   2.400
  796SOL     OW 2522   1.726   2.518   1.982
  796SOL    HW1 2523   1.751   2.568   2.060
  796SOL    HW2 2524   1.718   2.428   2.014
  797SOL     OW 2525   0.714   3.038   2.863
  797SOL    HW1 2526   0.791   3.094   2.854
  797SOL    HW2 2527   0.744   2.951   2.836
  798SOL     OW 2528   0.897   2.603   3.628
  798SOL    HW1 2529   0.971   2.546   3.649
  798SOL    HW2 2530   0.822   2.543   3.621
  799SOL     OW 2531   0.700   2.877   2.503
  799SOL    HW1 2532   0.732   2.844   2.586
  799SOL    HW2 2533   0.665   2.964   2.523
  800SOL     OW 2534   0.729   3.065   3.689
  800SOL    HW1 2535   0.806   3.026   3.649
  800SOL    HW2 2536   0.680   2.992   3.726
  801SOL     OW 2537   0.356   3.229   3.000
  801SOL    HW1 2538   0.279   3.183   3.032
  801SOL    HW2 2539   0.338   3.245   2.908
  802SOL     OW 2540   1.393   3.429   3.206
  802SOL    HW1 2541   1.327   3.419   3.274
  802SOL    HW2 2542   1.441   3.346   3.207
  803SOL     OW 2543   0.484   2.214   3.268
  803SOL    HW1 2544   0.465   2.289   3.212
  803SOL    HW2 2545   0.436   2.142   3.229
  804SOL     OW 2546   1.637   2.353   2.625
  804SOL    HW1 2547   1.589   2.425   2.585
  804SOL    HW2 2548   1.601   2.348   2.714
  805SOL     OW 2549   0.199   3.546   2.338
  805SOL    HW1 2550   0.212   3.466   2.389
  805SOL    HW2 2551   0.109   3.572   2.355
  806SOL     OW 2552   1.142   3.208   3.547
  806SOL    HW1 2553   1.182   3.211   3.634
  806SOL    HW2 2554   1.213   3.182   3.489
  807SOL     OW 2555   0.286   3.315   2.457
  807SOL    HW1 2556   0.216   3.275   2.510
  807SOL    HW2 2557   0.292   3.258   2.380
  808SOL     OW 2558   0.127   2.962   2.689
  808SOL    HW1 2559   0.213   2.958   2.648
  808SOL    HW2 2560   0.096   2.872   2.690
  809SOL     OW 2561   0.678   3.689   3.305
  809SOL    HW1 2562   0.760   3.721   3.268
  809SOL    HW2 2563   0.668   3.601   3.268
  810SOL     OW 2564   0.582   2.754   1.994
  810SOL    HW1 2565   0.662   2.744   1.941
  810SOL    HW2 2566   0.612   2.797   2.074
  811SOL     OW 2567   1.723   1.851   3.400
  811SOL    HW1 2568   1.807   1.832   3.444
  811SOL    HW2 2569   1.748   1.890   3.317
  812SOL     OW 2570   0.091   2.418   2.366
  812SOL    HW1 2571   0.182   2.447   2.357
  812SOL    HW2 2572   0.099   2.326   2.390
  813SOL     OW 2573   1.906   3.616   2.267
  813SOL    HW1 2574   1.824   3.632   2.314
  813SOL    HW2 2575   1.931   3.703   2.234
  814SOL     OW 2576   0.080   3.278   2.080
  814SOL    HW1 2577   0.060   3.369   2.060
  814SOL    HW2 2578   0.114   3.242   1.998
  815SOL     OW 2579   1.657   2.887   2.261
  815SOL    HW1 2580   1.584   2.929   2.307
  815SOL    HW2 2581   1.630   2.887   2.169
  816SOL     OW 2582   0.094   2.630   3.375
  816SOL    HW1 2583   0.082   2.686   3.451
  816SOL    HW2 2584   0.005   2.617   3.340
  817SOL     OW 2585   0.591   3.122   2.571
  817SOL    HW1 2586   0.627   3.148   2.655
  817SOL    HW2 2587   0.586   3.203   2.520
  818SOL     OW 2588   1.322   3.132   3.347
  818SOL    HW1 2589   1.370   3.078   3.410
  818SOL    HW2 2590   1.387   3.157   3.282
  819SOL     OW 2591   0.821   1.842   2.416
  819SOL    HW1 2592   0.731   1.868   2.396
  819SOL    HW2 2593   0.865   1.838   2.331
  820SOL     OW 2594   0.226   2.775   3.186
  820SOL    HW1 2595   0.175   2.726   3.250
  820SOL    HW2 2596   0.193   2.746   3.101
  821SOL     OW 2597   1.549   2.863   1.999
  821SOL    HW1 2598   1.512   2.942   1.959
  821SOL    HW2 2599   1.477   2.800   1.997
  822SOL     OW 2600   1.263   3.694   3.440
  822SOL    HW1 2601   1.254   3.602   3.413
  822SOL    HW2 2602   1.199   3.705   3.509
  823SOL     OW 2603   0.459   2.267   3.534
  823SOL    HW1 2604   0.375   2.310   3.551
  823SOL    HW2 2605   0.460   2.254   3.439
  824SOL     OW 2606   1.522   3.332   2.842
  824SOL    HW1 2607   1.611   3.355   2.867
  824SOL    HW2 2608   1.514   3.239   2.862
  825SOL     OW 2609   1.668   3.672   2.390
  825SOL    HW1 2610   1.622   3.641   2.468
  825SOL    HW2 2611   1.674   3.766   2.401
  826SOL     OW 2612   0.546   2.521   2.141
  826SOL    HW1 2613   0.551   2.599   2.084
  826SOL    HW2 2614   0.502   2.456   2.087
  827SOL     OW 2615   1.367   2.167   2.787
  827SOL    HW1 2616   1.395   2.258   2.798
  827SOL    HW2 2617   1.280   2.174   2.746
  828SOL     OW 2618   1.516   3.563   2.187
  828SOL    HW1 2619   1.582   3.602   2.244
  828SOL    HW2 2620   1.464   3.508   2.244
  829SOL     OW 2621   0.803   2.413   3.306
  829SOL    HW1 2622   0.866   2.342   3.318
  829SOL    HW2 2623   0.853   2.482   3.261
  830SOL     OW 2624   1.407   2.232   3.513
  830SOL    HW1 2625   1.422   2.268   3.601
  830SOL    HW2 2626   1.453   2.149   3.512
  831SOL     OW 2627   0.996   2.772   3.435
  831SOL    HW1 2628   0.954   2.714   3.499
  831SOL    HW2 2629   0.927   2.793   3.373
  832SOL     OW 2630   0.977   2.130   2.973
  832SOL    HW1 2631   0.894   2.146   3.018
  832SOL    HW2 2632   1.044   2.158   3.035
  833SOL     OW 2633   1.015   2.589   2.229
  833SOL    HW1 2634   0.992   2.670   2.183
  833SOL    HW2 2635   0.936   2.535   2.223
  834SOL     OW 2636   0.065   2.687   2.688
  834SOL    HW1 2637   0.153   2.647   2.687
  834SOL    HW2 2638   0.017   2.641   2.619
  835SOL     OW 2639   0.235   3.791   3.427
  835SOL    HW1 2640   0.189   3.744   3.497
  835SOL    HW2 2641   0.222   3.883   3.448
  836SOL     OW 2642   0.871   2.237   2.034
  836SOL    HW1 2643   0.907   2.182   2.103
  836SOL    HW2 2644   0.904   2.198   1.953
  837SOL     OW 2645   1.689   2.463   3.742
  837SOL    HW1 2646   1.598   2.435   3.755
  837SOL    HW2 2647   1.687   2.512   3.659
  838SOL     OW 2648   1.414   2.975   2.362
  838SOL    HW1 2649   1.358   3.047   2.333
  838SOL    HW2 2650   1.377   2.897   2.320
  839SOL     OW 2651   0.533   2.144   2.740
  839SOL    HW1 2652   0.546   2.093   2.820
  839SOL    HW2 2653   0.622   2.159   2.706
  840SOL     OW 2654   1.077   3.287   2.497
  840SOL    HW1 2655   1.116   3.365   2.537
  840SOL    HW2 2656   0.982   3.305   2.497
  841SOL     OW 2657   0.391   3.609   2.720
  841SOL    HW1 2658   0.449   3.538   2.749
  841SOL    HW2 2659   0.439   3.689   2.742
  842SOL     OW 2660   1.636   2.849   2.807
  842SOL    HW1 2661   1.722   2.836   2.767
  842SOL    HW2 2662   1.574   2.840   2.735
  843SOL     OW 2663   1.189   3.434   3.384
  843SOL    HW1 2664   1.157   3.368   3.445
  843SOL    HW2 2665   1.116   3.447   3.324
  844SOL     OW 2666   0.234   2.787   2.094
  844SOL    HW1 2667   0.216   2.695   2.078
  844SOL    HW2 2668   0.272   2.820   2.012
  845SOL     OW 2669   1.495   2.559   2.521
  845SOL    HW1 2670   1.491   2.652   2.543
  845SOL    HW2 2671   1.509   2.557   2.427
  846SOL     OW 2672   0.513   3.229   3.642
  846SOL    HW1 2673   0.595   3.180   3.636
  846SOL    HW2 2674   0.495   3.235   3.736
  847SOL     OW 2675   1.092   3.750   2.149
  847SOL    HW1 2676   1.182   3.769   2.122
  847SOL    HW2 2677   1.044   3.831   2.131
  848SOL     OW 2678   0.183   2.127   3.363
  848SOL    HW1 2679   0.184   2.219   3.339
  848SOL    HW2 2680   0.234   2.084   3.294
  849SOL     OW 2681   1.615   3.205   1.954
  849SOL    HW1 2682   1.552   3.147   1.913
  849SOL    HW2 2683   1.573   3.291   1.952
  850SOL     OW 2684   0.444   3.532   2.213
  850SOL    HW1 2685   0.355   3.525   2.248
  850SOL    HW2 2686   0.453   3.457   2.154
  851SOL     OW 2687   1.361   1.980   2.324
  851SOL    HW1 2688   1.451   1.973   2.358
  851SOL    HW2 2689   1.371   1.971   2.229
  852SOL     OW 2690   0.278   3.678   3.186
  852SOL    HW1 2691   0.319   3.593   3.203
  852SOL    HW2 2692   0.262   3.715   3.272
  853SOL     OW 2693   0.839   3.523   2.762
  853SOL    HW1 2694   0.901   3.489   2.827
  853SOL    HW2 2695   0.889   3.588   2.713
  854SOL     OW 2696   0.356   2.507   2.342
  854SOL    HW1 2697   0.385   2.575   2.403
  854SOL    HW2 2698   0.410   2.519   2.264
  855SOL     OW 2699   1.549   1.998   3.553
  855SOL    HW1 2700   1.512   1.943   3.623
  855SOL    HW2 2701   1.597   1.936   3.498
  856SOL     OW 2702   0.631   2.004   1.939
  856SOL    HW1 2703   0.617   2.047   2.024
  856SOL    HW2 2704   0.642   1.911   1.961
  857SOL     OW 2705   0.786   2.140   3.643
  857SOL    HW1 2706   0.782   2.235   3.633
  857SOL    HW2 2707   0.761   2.105   3.557
  858SOL     OW 2708   1.015   3.431   2.953
  858SOL    HW1 2709   1.110   3.423   2.948
  858SOL    HW2 2710   0.997   3.448   3.046
  859SOL     OW 2711   1.316   2.391   3.297
  859SOL    HW1 2712   1.364   2.347   3.366
  859SOL    HW2 2713   1.371   2.466   3.272
  860SOL     OW 2714   0.921   3.202   2.839
  860SOL    HW1 2715   0.946   3.281   2.886
  860SOL    HW2 2716   1.001   3.176   2.793
  861SOL     OW 2717   0.951   2.374   2.735
  861SOL    HW1 2718   1.008   2.297   2.734
  861SOL    HW2 2719   0.919   2.382   2.646
  862SOL     OW 2720   0.547   1.869   2.360
  862SOL    HW1 2721   0.460   1.874   2.400
  862SOL    HW2 2722   0.554   1.778   2.331
  863SOL     OW 2723   1.407   3.057   1.851
  863SOL    HW1 2724   1.344   3.126   1.832
  863SOL    HW2 2725   1.372   2.981   1.804
  864SOL     OW 2726   0.271   1.820   1.958
  864SOL    HW1 2727   0.289   1.747   2.018
  864SOL    HW2 2728   0.277   1.898   2.013
  865SOL     OW 2729   0.972   2.103   2.254
  865SOL    HW1 2730   1.056   2.139   2.283
  865SOL    HW2 2731   0.912   2.125   2.325
  866SOL     OW 2732   1.083   2.549   3.276
  866SOL    HW1 2733   1.091   2.616   3.344
  866SOL    HW2 2734   1.160   2.493   3.288
  867SOL     OW 2735   1.195   3.506   2.604
  867SOL    HW1 2736   1.213   3.548   2.689
  867SOL    HW2 2737   1.182   3.579   2.544
  868SOL     OW 2738   0.369   2.950   2.549
  868SOL    HW1 2739   0.439   3.012   2.568
  868SOL    HW2 2740   0.368   2.943   2.454
  869SOL     OW 2741   1.164   3.700   2.421
  869SOL    HW1 2742   1.238   3.761   2.414
  869SOL    HW2 2743   1.125   3.701   2.333
  870SOL     OW 2744   1.142   2.516   1.901
  870SOL    HW1 2745   1.141   2.465   1.982
  870SOL    HW2 2746   1.122   2.453   1.832
  871SOL     OW 2747   0.185   2.382   3.275
  871SOL    HW1 2748   0.260   2.406   3.221
  871SOL    HW2 2749   0.159   2.465   3.316
  872SOL     OW 2750   0.576   2.021   2.984
  872SOL    HW1 2751   0.637   2.082   3.026
  872SOL    HW2 2752   0.507   2.007   3.049
  873SOL     OW 2753   0.853   2.426   2.487
  873SOL    HW1 2754   0.765   2.435   2.524
  873SOL    HW2 2755   0.838   2.421   2.392
  874SOL     OW 2756   1.019   1.892   2.601
  874SOL    HW1 2757   0.944   1.883   2.542
  874SOL    HW2 2758   1.093   1.856   2.552
  875SOL     OW 2759   1.472   2.830   2.588
  875SOL    HW1 2760   1.464   2.891   2.515
  875SOL    HW2 2761   1.382   2.809   2.613
  876SOL     OW 2762   1.477   2.410   2.853
  876SOL    HW1 2763   1.538   2.426   2.925
  876SOL    HW2 2764   1.415   2.482   2.858
  877SOL     OW 2765   1.797   2.660   2.205
  877SOL    HW1 2766   1.891   2.671   2.188
  877SOL    HW2 2767   1.766   2.749   2.224
  878SOL     OW 2768   0.501   3.298   2.072
  878SOL    HW1 2769   0.591   3.308   2.103
  878SOL    HW2 2770   0.510   3.257   1.986
  879SOL     OW 2771   1.416   2.396   1.996
  879SOL    HW1 2772   1.337   2.394   2.050
  879SOL    HW2 2773   1.459   2.478   2.019
  880SOL     OW 2774   0.560   2.086   2.195
  880SOL    HW1 2775   0.551   2.161   2.253
  880SOL    HW2 2776   0.563   2.011   2.254
  881SOL     OW 2777   1.727   3.024   3.397
  881SOL    HW1 2778   1.758   3.099   3.347
  881SOL    HW2 2779   1.792   3.012   3.466
  882SOL     OW 2780   1.109   3.070   3.170
  882SOL    HW1 2781   1.166   3.096   3.242
  882SOL    HW2 2782   1.021   3.091   3.202
  883SOL     OW 2783   1.606   3.479   3.546
  883SOL    HW1 2784   1.699   3.460   3.537
  883SOL    HW2 2785   1.583   3.527   3.466
  884SOL     OW 2786   1.260   3.036   2.944
  884SOL    HW1 2787   1.200   3.065   3.013
  884SOL    HW2 2788   1.222   3.071   2.863
  885SOL     OW 2789   1.528   3.072   2.940
  885SOL    HW1 2790   1.435   3.051   2.939
  885SOL    HW2 2791   1.570   2.997   2.898
  886SOL     OW 2792   0.895   1.956   3.292
  886SOL    HW1 2793   0.809   1.981   3.325
  886SOL    HW2 2794   0.918   1.878   3.343
  887SOL     OW 2795   0.980   2.991   3.601
  887SOL    HW1 2796   1.027   3.070   3.576
  887SOL    HW2 2797   1.001   2.927   3.533
  888SOL     OW 2798   0.655   2.873   2.229
  888SOL    HW1 2799   0.689   2.868   2.318
  888SOL    HW2 2800   0.563   2.900   2.240
  889SOL     OW 2801   0.471   2.682   3.088
  889SOL    HW1 2802   0.527   2.676   3.165
  889SOL    HW2 2803   0.394   2.731   3.117
  890SOL     OW 2804   1.186   2.204   3.141
  890SOL    HW1 2805   1.238   2.272   3.183
  890SOL    HW2 2806   1.251   2.142   3.107
  891SOL     OW 2807   0.070   3.403   3.199
  891SOL    HW1 2808  -0.009   3.383   3.250
  891SOL    HW2 2809   0.046   3.481   3.148
  892SOL     OW 2810   0.386   2.933   2.274
  892SOL    HW1 2811   0.354   3.021   2.253
  892SOL    HW2 2812   0.332   2.874   2.221
  893SOL     OW 2813   0.599   2.444   2.573
  893SOL    HW1 2814   0.552   2.526   2.561
  893SOL    HW2 2815   0.559   2.383   2.511
  894SOL     OW 2816   1.253   3.200   2.298
  894SOL    HW1 2817   1.312   3.275   2.312
  894SOL    HW2 2818   1.181   3.214   2.360
  895SOL     OW 2819   1.289   3.431   2.957
  895SOL    HW1 2820   1.322   3.435   3.046
  895SOL    HW2 2821   1.361   3.394   2.906
  896SOL     OW 2822   1.560   2.536   2.258
  896SOL    HW1 2823   1.641   2.585   2.243
  896SOL    HW2 2824   1.579   2.447   2.228
  897SOL     OW 2825   0.344   3.398   3.218
  897SOL    HW1 2826   0.249   3.402   3.231
  897SOL    HW2 2827   0.355   3.346   3.138
  898SOL     OW 2828   0.376   2.593   3.454
  898SOL    HW1 2829   0.301   2.635   3.413
  898SOL    HW2 2830   0.338   2.523   3.508
  899SOL     OW 2831   1.675   2.588   3.500
  899SOL    HW1 2832   1.697   2.657   3.439
  899SOL    HW2 2833   1.668   2.509   3.446
  900SOL     OW 2834   1.032   2.008   3.698
  900SOL    HW1 2835   1.080   2.079   3.656
  900SOL    HW2 2836   0.940   2.034   3.690
  901SOL     OW 2837   0.480   1.991   3.589
  901SOL    HW1 2838   0.516   1.982   3.677
  901SOL    HW2 2839   0.458   2.084   3.581
  902SOL     OW 2840   0.592   2.648   2.846
  902SOL    HW1 2841   0.554   2.670   2.931
  902SOL    HW2 2842   0.635   2.564   2.861
  903SOL     OW 2843   1.299   2.626   2.872
  903SOL    HW1 2844   1.286   2.685   2.946
  903SOL    HW2 2845   1.291   2.681   2.794
  904SOL     OW 2846   1.193   2.397   2.150
  904SOL    HW1 2847   1.138   2.466   2.186
  904SOL    HW2 2848   1.195   2.329   2.218
  905SOL     OW 2849   0.341   2.012   3.157
  905SOL    HW1 2850   0.283   2.041   3.087
  905SOL    HW2 2851   0.313   1.922   3.176
  906SOL     OW 2852   0.122   3.144   3.116
  906SOL    HW1 2853   0.095   3.232   3.145
  906SOL    HW2 2854   0.127   3.093   3.197
  907SOL     OW 2855   0.760   2.441   2.927
  907SOL    HW1 2856   0.810   2.500   2.983
  907SOL    HW2 2857   0.823   2.413   2.860
  908SOL     OW 2858   1.696   2.814   3.684
  908SOL    HW1 2859   1.624   2.813   3.747
  908SOL    HW2 2860   1.684   2.734   3.632
  909SOL     OW 2861   0.285   1.859   2.474
  909SOL    HW1 2862   0.197   1.893   2.487
  909SOL    HW2 2863   0.272   1.773   2.433
  910SOL     OW 2864   1.672   2.302   2.164
  910SOL    HW1 2865   1.697   2.254   2.243
  910SOL    HW2 2866   1.647   2.233   2.102
  911SOL     OW 2867   1.013   2.618   2.835
  911SOL    HW1 2868   1.109   2.623   2.839
  911SOL    HW2 2869   0.995   2.534   2.794
  912SOL     OW 2870   0.900   3.496   3.615
  912SOL    HW1 2871   0.887   3.435   3.543
  912SOL    HW2 2872   0.811   3.518   3.645
  913SOL     OW 2873   1.867   3.426   3.527
  913SOL    HW1 2874   1.923   3.354   3.496
  913SOL    HW2 2875   1.917   3.505   3.507
  914SOL     OW 2876   0.366   2.806   3.644
  914SOL    HW1 2877   0.439   2.830   3.700
  914SOL    HW2 2878   0.400   2.735   3.590
  915SOL     OW 2879   1.536   2.150   1.975
  915SOL    HW1 2880   1.475   2.082   2.002
  915SOL    HW2 2881   1.486   2.231   1.983
  916SOL     OW 2882   1.314   2.713   1.984
  916SOL    HW1 2883   1.257   2.789   1.984
  916SOL    HW2 2884   1.261   2.642   1.947
  917SOL     OW 2885   1.147   3.121   2.709
  917SOL    HW1 2886   1.152   3.185   2.638
  917SOL    HW2 2887   1.104   3.045   2.669
  918SOL     OW 2888   0.326   2.595   2.761
  918SOL    HW1 2889   0.417   2.624   2.767
  918SOL    HW2 2890   0.287   2.622   2.844
  919SOL     OW 2891   0.358   2.329   2.845
  919SOL    HW1 2892   0.426   2.281   2.798
  919SOL    HW2 2893   0.345   2.409   2.794
  920SOL     OW 2894   1.133   2.219   3.551
  920SOL    HW1 2895   1.225   2.217   3.522
  920SOL    HW2 2896   1.083   2.218   3.469
  921SOL     OW 2897   0.984   2.210   3.319
  921SOL    HW1 2898   0.952   2.120   3.311
  921SOL    HW2 2899   1.055   2.216   3.255
  922SOL     OW 2900   4.851   3.147   1.981
  922SOL    HW1 2901   4.925   3.179   2.032
  922SOL    HW2 2902   4.843   3.054   2.005
  923SOL     OW 2903   0.122   3.635   2.789
  923SOL    HW1 2904   0.213   3.622   2.764
  923SOL    HW2 2905   0.072   3.580   2.728
  924SOL     OW 2906   0.583   3.428   2.819
  924SOL    HW1 2907   0.672   3.456   2.794
  924SOL    HW2 2908   0.597   3.370   2.894
  925SOL     OW 2909   0.909   2.619   3.086
  925SOL    HW1 2910   0.979   2.595   3.146
  925SOL    HW2 2911   0.953   2.634   3.002
  926SOL     OW 2912   0.070   2.386   3.020
  926SOL    HW1 2913   0.078   2.377   3.115
  926SOL    HW2 2914   0.090   2.299   2.986
  927SOL     OW 2915   0.228   2.407   3.589
  927SOL    HW1 2916   0.233   2.387   3.683
  927SOL    HW2 2917   0.136   2.431   3.575
  928SOL     OW 2918   1.412   2.744   3.465
  928SOL    HW1 2919   1.416   2.673   3.531
  928SOL    HW2 2920   1.419   2.698   3.381
  929SOL     OW 2921   0.794   2.427   2.217
  929SOL    HW1 2922   0.706   2.458   2.197
  929SOL    HW2 2923   0.814   2.364   2.148
  930SOL     OW 2924   1.660   2.452   3.057
  930SOL    HW1 2925   1.752   2.429   3.064
  930SOL    HW2 2926   1.623   2.427   3.142
  931SOL     OW 2927   0.324   3.408   3.551
  931SOL    HW1 2928   0.391   3.353   3.591
  931SOL    HW2 2929   0.372   3.480   3.510
  932SOL     OW 2930   0.735   2.221   3.085
  932SOL    HW1 2931   0.728   2.261   3.171
  932SOL    HW2 2932   0.732   2.294   3.024
  933SOL     OW 2933   0.979   3.490   3.217
  933SOL    HW1 2934   0.918   3.449   3.278
  933SOL    HW2 2935   0.958   3.583   3.221
  934SOL     OW 2936   0.392   2.356   2.000
  934SOL    HW1 2937   0.312   2.410   2.005
  934SOL    HW2 2938   0.370   2.286   1.939
  935SOL     OW 2939   0.195   2.999   3.352
  935SOL    HW1 2940   0.278   3.046   3.362
  935SOL    HW2 2941   0.216   2.926   3.293
  936SOL     OW 2942   1.241   2.800   3.081
  936SOL    HW1 2943   1.178   2.829   3.147
  936SOL    HW2 2944   1.259   2.879   3.029
  937SOL     OW 2945   1.359   2.728   2.256
  937SOL    HW1 2946   1.423   2.657   2.260
  937SOL    HW2 2947   1.325   2.725   2.167
  938SOL     OW 2948   1.758   3.705   2.962
  938SOL    HW1 2949   1.767   3.635   3.027
  938SOL    HW2 2950   1.669   3.695   2.928
  939SOL     OW 2951   1.237   3.665   2.836
  939SOL    HW1 2952   1.250   3.586   2.889
  939SOL    HW2 2953   1.170   3.714   2.883
  940SOL     OW 2954  -0.027   3.092   2.887
  940SOL    HW1 2955   0.027   3.101   2.966
  940SOL    HW2 2956   0.028   3.044   2.825
  941SOL     OW 2957   0.630   3.561   3.671
  941SOL    HW1 2958   0.572   3.623   3.714
  941SOL    HW2 2959   0.595   3.552   3.583
  942SOL     OW 2960   1.609   1.964   2.442
  942SOL    HW1 2961   1.658   2.044   2.422
  942SOL    HW2 2962   1.589   1.971   2.536
  943SOL     OW 2963   1.375   3.437   2.382
  943SOL    HW1 2964   1.442   3.443   2.450
  943SOL    HW2 2965   1.295   3.470   2.424
  944SOL     OW 2966   0.144   3.611   3.612
  944SOL    HW1 2967   0.176   3.625   3.701
  944SOL    HW2 2968   0.190   3.533   3.581
  945SOL     OW 2969   1.218   2.757   2.643
  945SOL    HW1 2970   1.184   2.685   2.590
  945SOL    HW2 2971   1.153   2.827   2.635
  946SOL     OW 2972   0.833   3.100   3.247
  946SOL    HW1 2973   0.766   3.130   3.186
  946SOL    HW2 2974   0.818   3.006   3.254
  947SOL     OW 2975   0.757   3.564   1.926
  947SOL    HW1 2976   0.783   3.585   2.016
  947SOL    HW2 2977   0.804   3.483   1.906
  948SOL     OW 2978   1.584   3.602   3.284
  948SOL    HW1 2979   1.558   3.692   3.265
  948SOL    HW2 2980   1.511   3.549   3.253
  949SOL     OW 2981   1.781   2.005   2.873
  949SOL    HW1 2982   1.847   2.073   2.885
  949SOL    HW2 2983   1.831   1.927   2.849
  950SOL     OW 2984   0.336   2.116   2.557
  950SOL    HW1 2985   0.400   2.124   2.628
  950SOL    HW2 2986   0.337   2.023   2.535
  951SOL     OW 2987   1.215   3.517   1.972
  951SOL    HW1 2988   1.176   3.577   2.036
  951SOL    HW2 2989   1.197   3.558   1.887
  952SOL     OW 2990   0.798   2.819   3.249
  952SOL    HW1 2991   0.722   2.771   3.280
  952SOL    HW2 2992   0.832   2.765   3.177
  953SOL     OW 2993   0.898   2.803   2.098
  953SOL    HW1 2994   0.819   2.837   2.140
  953SOL    HW2 2995   0.869   2.773   2.012
  954SOL     OW 2996   1.484   3.446   1.943
  954SOL    HW1 2997   1.512   3.489   2.024
  954SOL    HW2 2998   1.389   3.459   1.941
  955SOL     OW 2999   0.403   3.165   3.390
  955SOL    HW1 3000   0.446   3.178   3.474
  955SOL    HW2 3001   0.395   3.253   3.353
  956SOL     OW 3002   1.541   3.200   3.184
  956SOL    HW1 3003   1.633   3.205   3.207
  956SOL    HW2 3004   1.539   3.154   3.100
  957SOL     OW 3005   1.002   2.921   2.599
  957SOL    HW1 3006   0.932   2.880   2.649
  957SOL    HW2 3007   0.965   2.932   2.511
  958SOL     OW 3008   1.089   2.131   2.728
  958SOL    HW1 3009   1.048   2.121   2.814
  958SOL    HW2 3010   1.065   2.051   2.681
  959SOL     OW 3011   0.553   3.381   2.439
  959SOL    HW1 3012   0.549   3.444   2.367
  959SOL    HW2 3013   0.461   3.367   2.463
  960SOL     OW 3014   1.680   2.369   3.331
  960SOL    HW1 3015   1.761   2.374   3.281
  960SOL    HW2 3016   1.692   2.294   3.389
  961SOL     OW 3017   0.302   3.186   2.217
  961SOL    HW1 3018   0.374   3.224   2.167
  961SOL    HW2 3019   0.224   3.212   2.169
  962SOL     OW 3020   0.105   2.830   3.566
  962SOL    HW1 3021   0.191   2.825   3.608
  962SOL    HW2 3022   0.113   2.902   3.504
  963SOL     OW 3023   0.669   2.055   3.401
  963SOL    HW1 3024   0.605   2.011   3.458
  963SOL    HW2 3025   0.616   2.114   3.347
  964SOL     OW 3026   0.036   2.190   1.911
  964SOL    HW1 3027   0.032   2.171   2.005
  964SOL    HW2 3028   0.050   2.105   1.870
  965SOL     OW 3029   1.422   2.636   3.213
  965SOL    HW1 3030   1.350   2.683   3.170
  965SOL    HW2 3031   1.501   2.665   3.168
  966SOL     OW 3032   0.051   2.085   2.170
  966SOL    HW1 3033   0.143   2.072   2.149
  966SOL    HW2 3034   0.050   2.114   2.261
  967SOL     OW 3035   1.118   3.263   2.047
  967SOL    HW1 3036   1.169   3.226   2.120
  967SOL    HW2 3037   1.166   3.341   2.022
  968SOL     OW 3038   0.610   2.629   3.316
  968SOL    HW1 3039   0.535   2.616   3.374
  968SOL    HW2 3040   0.658   2.547   3.320
  969SOL     OW 3041   1.515   3.709   2.845
  969SOL    HW1 3042   1.422   3.692   2.836
  969SOL    HW2 3043   1.529   3.794   2.804
  970SOL     OW 3044   0.710   2.396   3.566
  970SOL    HW1 3045   0.620   2.364   3.565
  970SOL    HW2 3046   0.735   2.400   3.474
  971SOL     OW 3047   1.481   2.997   3.514
  971SOL    HW1 3048   1.569   3.002   3.477
  971SOL    HW2 3049   1.456   2.905   3.502
  972SOL     OW 3050   0.459   3.623   3.452
  972SOL    HW1 3051   0.533   3.657   3.401
  972SOL    HW2 3052   0.395   3.694   3.452
  973SOL     OW 3053   1.633   2.726   3.058
  973SOL    HW1 3054   1.651   2.635   3.037
  973SOL    HW2 3055   1.632   2.770   2.973
  974SOL     OW 3056   1.205   2.205   2.350
  974SOL    HW1 3057   1.233   2.257   2.426
  974SOL    HW2 3058   1.263   2.130   2.350
  975SOL     OW 3059   0.485   2.691   2.505
  975SOL    HW1 3060   0.425   2.757   2.542
  975SOL    HW2 3061   0.564   2.740   2.485
  976SOL     OW 3062   1.758   2.169   3.501
  976SOL    HW1 3063   1.794   2.193   3.587
  976SOL    HW2 3064   1.687   2.108   3.521
  977SOL     OW 3065   1.747   2.769   3.305
  977SOL    HW1 3066   1.733   2.859   3.332
  977SOL    HW2 3067   1.709   2.763   3.218
  978SOL     OW 3068   0.878   3.315   1.925
  978SOL    HW1 3069   0.967   3.289   1.951
  978SOL    HW2 3070   0.825   3.302   2.003
  979SOL     OW 3071   0.729   3.753   2.889
  979SOL    HW1 3072   0.747   3.668   2.848
  979SOL    HW2 3073   0.651   3.786   2.844
  980SOL     OW 3074   0.806   2.788   2.747
  980SOL    HW1 3075   0.878   2.733   2.778
  980SOL    HW2 3076   0.727   2.742   2.776
  981SOL     OW 3077   1.134   2.911   2.004
  981SOL    HW1 3078   1.056   2.879   2.051
  981SOL    HW2 3079   1.102   2.983   1.950
  982SOL     OW 3080   1.802   3.400   2.648
  982SOL    HW1 3081   1.800   3.376   2.741
  982SOL    HW2 3082   1.839   3.323   2.605
  983SOL     OW 3083   0.131   3.209   3.564
  983SOL    HW1 3084   0.194   3.280   3.554
  983SOL    HW2 3085   0.161   3.141   3.503
  984SOL     OW 3086   0.064   3.205   2.567
  984SOL    HW1 3087   0.073   3.123   2.615
  984SOL    HW2 3088   0.024   3.180   2.483
  985SOL     OW 3089   0.829   3.344   3.394
  985SOL    HW1 3090   0.841   3.253   3.369
  985SOL    HW2 3091   0.745   3.368   3.355
  986SOL     OW 3092   1.790   1.919   3.145
  986SOL    HW1 3093   1.874   1.876   3.130
  986SOL    HW2 3094   1.768   1.960   3.062
  987SOL     OW 3095   0.484   2.270   2.388
  987SOL    HW1 3096   0.425   2.217   2.442
  987SOL    HW2 3097   0.430   2.344   2.359
  988SOL     OW 3098   1.792   3.354   2.917
  988SOL    HW1 3099   1.793   3.410   2.994
  988SOL    HW2 3100   1.852   3.282   2.939
  989SOL     OW 3101   0.400   2.416   3.104
  989SOL    HW1 3102   0.427   2.506   3.090
  989SOL    HW2 3103   0.381   2.382   3.017
  990SOL     OW 3104   0.813   3.366   2.524
  990SOL    HW1 3105   0.817   3.413   2.607
  990SOL    HW2 3106   0.724   3.379   2.493
  991SOL     OW 3107   1.370   2.029   3.019
  991SOL    HW1 3108   1.461   2.031   3.048
  991SOL    HW2 3109   1.370   2.078   2.937
  992SOL     OW 3110   1.010   1.819   3.077
  992SOL    HW1 3111   0.967   1.877   3.139
  992SOL    HW2 3112   0.949   1.746   3.067
  993SOL     OW 3113   0.754   3.336   2.173
  993SOL    HW1 3114   0.782   3.296   2.256
  993SOL    HW2 3115   0.790   3.425   2.176
  994SOL     OW 3116   0.619   3.422   3.235
  994SOL    HW1 3117   0.524   3.428   3.242
  994SOL    HW2 3118   0.633   3.352   3.170
  995SOL     OW 3119   1.365   1.950   2.049
  995SOL    HW1 3120   1.408   1.876   2.007
  995SOL    HW2 3121   1.272   1.937   2.034
  996SOL     OW 3122   1.282   2.381   2.545
  996SOL    HW1 3123   1.362   2.434   2.549
  996SOL    HW2 3124   1.211   2.445   2.535
  997SOL     OW 3125   1.561   1.990   2.709
  997SOL    HW1 3126   1.636   2.008   2.765
  997SOL    HW2 3127   1.498   2.059   2.730
  998SOL     OW 3128   0.014   2.929   2.179
  998SOL    HW1 3129   0.091   2.877   2.155
  998SOL    HW2 3130  -0.056   2.896   2.124
  999SOL     OW 3131   0.862   3.591   2.178
  999SOL    HW1 3132   0.830   3.629   2.259
  999SOL    HW2 3133   0.946   3.635   2.162
 1000SOL     OW 3134   0.218   2.350   3.850
 1000SOL    HW1 3135   0.147   2.401   3.891
 1000SOL    HW2 3136   0.297   2.378   3.896
 1001SOL     OW 3137   0.262   2.127   4.586
 1001SOL    HW1 3138   0.261   2.214   4.626
 1001SOL    HW2 3139   0.346   2.089   4.611
 1002SOL     OW 3140   4.932   2.226   4.325
 1002SOL    HW1 3141   5.025   2.233   4.348
 1002SOL    HW2 3142   4.895   2.312   4.348
 1003SOL     OW 3143   0.536   3.118   4.860
 1003SOL    HW1 3144   0.530   3.061   4.937
 1003SOL    HW2 3145   0.588   3.067   4.797
 1004SOL     OW 3146   1.562   3.432   4.408
 1004SOL    HW1 3147   1.519   3.431   4.494
 1004SOL    HW2 3148   1.611   3.349   4.405
 1005SOL     OW 3149   1.058   2.605   4.375
 1005SOL    HW1 3150   1.053   2.612   4.470
 1005SOL    HW2 3151   1.101   2.687   4.348
 1006SOL     OW 3152   1.850   2.468   3.960
 1006SOL    HW1 3153   1.796   2.426   4.027
 1006SOL    HW2 3154   1.790   2.483   3.887
 1007SOL     OW 3155   0.680   2.968   4.681
 1007SOL    HW1 3156   0.726   3.045   4.647
 1007SOL    HW2 3157   0.733   2.894   4.652
 1008SOL     OW 3158   0.638   2.818   4.377
 1008SOL    HW1 3159   0.688   2.798   4.457
 1008SOL    HW2 3160   0.569   2.877   4.406
 1009SOL     OW 3161   0.366   3.313   4.802
 1009SOL    HW1 3162   0.433   3.248   4.822
 1009SOL    HW2 3163   0.402   3.364   4.730
 1010SOL     OW 3164   1.594   2.312   4.380
 1010SOL    HW1 3165   1.568   2.388   4.433
 1010SOL    HW2 3166   1.684   2.294   4.406
 1011SOL     OW 3167   0.284   3.580   4.129
 1011SOL    HW1 3168   0.242   3.504   4.168
 1011SOL    HW2 3169   0.284   3.646   4.199
 1012SOL     OW 3170   0.177   3.356   4.229
 1012SOL    HW1 3171   0.128   3.288   4.274
 1012SOL    HW2 3172   0.211   3.313   4.150
 1013SOL     OW 3173   0.221   2.962   4.587
 1013SOL    HW1 3174   0.301   2.973   4.536
 1013SOL    HW2 3175   0.169   2.898   4.537
 1014SOL     OW 3176   0.579   2.859   3.819
 1014SOL    HW1 3177   0.653   2.810   3.856
 1014SOL    HW2 3178   0.522   2.875   3.893
 1015SOL     OW 3179   0.126   2.532   4.300
 1015SOL    HW1 3180   0.153   2.444   4.324
 1015SOL    HW2 3181   0.197   2.565   4.245
 1016SOL     OW 3182   1.852   3.609   3.994
 1016SOL    HW1 3183   1.920   3.588   4.058
 1016SOL    HW2 3184   1.877   3.559   3.916
 1017SOL     OW 3185   4.954   3.543   3.803
 1017SOL    HW1 3186   5.028   3.566   3.859
 1017SOL    HW2 3187   4.980   3.572   3.716
 1018SOL     OW 3188   1.691   2.862   4.376
 1018SOL    HW1 3189   1.704   2.910   4.458
 1018SOL    HW2 3190   1.606   2.819   4.387
 1019SOL     OW 3191   1.672   2.979   4.123
 1019SOL    HW1 3192   1.587   3.023   4.127
 1019SOL    HW2 3193   1.682   2.938   4.209
 1020SOL     OW 3194   0.574   3.238   4.452
 1020SOL    HW1 3195   0.658   3.226   4.497
 1020SOL    HW2 3196   0.533   3.312   4.497
 1021SOL     OW 3197   0.859   1.888   4.244
 1021SOL    HW1 3198   0.886   1.848   4.326
 1021SOL    HW2 3199   0.893   1.830   4.176
 1022SOL     OW 3200   0.045   2.819  -0.006
 1022SOL    HW1 3201   0.041   2.821   0.090
 1022SOL    HW2 3202   0.138   2.824  -0.027
 1023SOL     OW 3203   1.432   2.816   3.832
 1023SOL    HW1 3204   1.370   2.803   3.903
 1023SOL    HW2 3205   1.435   2.910   3.819
 1024SOL     OW 3206   1.509   3.181   4.618
 1024SOL    HW1 3207   1.441   3.204   4.681
 1024SOL    HW2 3208   1.474   3.105   4.570
 1025SOL     OW 3209   1.590   3.693   4.321
 1025SOL    HW1 3210   1.582   3.670   4.228
 1025SOL    HW2 3211   1.590   3.609   4.366
 1026SOL     OW 3212   0.697   2.521   4.042
 1026SOL    HW1 3213   0.729   2.606   4.010
 1026SOL    HW2 3214   0.676   2.537   4.134
 1027SOL     OW 3215   1.196   2.128   4.630
 1027SOL    HW1 3216   1.260   2.070   4.672
 1027SOL    HW2 3217   1.243   2.165   4.555
 1028SOL     OW 3218   1.583   3.608   4.055
 1028SOL    HW1 3219   1.678   3.605   4.047
 1028SOL    HW2 3220   1.550   3.595   3.966
 1029SOL     OW 3221   1.090   2.551   4.107
 1029SOL    HW1 3222   1.077   2.564   4.201
 1029SOL    HW2 3223   1.013   2.500   4.080
 1030SOL     OW 3224   0.089   2.744   4.474
 1030SOL    HW1 3225  -0.001   2.728   4.501
 1030SOL    HW2 3226   0.107   2.678   4.408
 1031SOL     OW 3227   0.152   3.612   0.345
 1031SOL    HW1 3228   0.197   3.688   0.310
 1031SOL    HW2 3229   0.097   3.580   0.273
 1032SOL     OW 3230   0.836   2.104   3.985
 1032SOL    HW1 3231   0.906   2.039   3.982
 1032SOL    HW2 3232   0.759   2.057   3.952
 1033SOL     OW 3233   1.452   3.097   4.269
 1033SOL    HW1 3234   1.531   3.140   4.302
 1033SOL    HW2 3235   1.416   3.051   4.345
 1034SOL     OW 3236   0.504   2.086   4.726
 1034SOL    HW1 3237   0.465   2.115   4.808
 1034SOL    HW2 3238   0.552   2.006   4.749
 1035SOL     OW 3239   0.938   3.424   4.242
 1035SOL    HW1 3240   0.886   3.448   4.317
 1035SOL    HW2 3241   1.012   3.485   4.243
 1036SOL     OW 3242   0.217   3.573   4.544
 1036SOL    HW1 3243   0.197   3.612   4.629
 1036SOL    HW2 3244   0.136   3.528   4.519
 1037SOL     OW 3245   1.785   2.978   4.620
 1037SOL    HW1 3246   1.861   3.034   4.631
 1037SOL    HW2 3247   1.821   2.889   4.619
 1038SOL     OW 3248   0.449   2.863   4.068
 1038SOL    HW1 3249   0.391   2.928   4.108
 1038SOL    HW2 3250   0.411   2.779   4.091
 1039SOL     OW 3251   1.448   2.713   4.367
 1039SOL    HW1 3252   1.443   2.637   4.425
 1039SOL    HW2 3253   1.497   2.682   4.291
 1040SOL     OW 3254   1.142   3.715   3.877
 1040SOL    HW1 3255   1.191   3.729   3.958
 1040SOL    HW2 3256   1.144   3.620   3.864
 1041SOL     OW 3257   1.628   3.294   3.774
 1041SOL    HW1 3258   1.594   3.366   3.827
 1041SOL    HW2 3259   1.626   3.327   3.685
 1042SOL     OW 3260   0.555   3.538   4.107
 1042SOL    HW1 3261   0.574   3.616   4.160
 1042SOL    HW2 3262   0.459   3.538   4.100
 1043SOL     OW 3263   1.192   1.936   4.190
 1043SOL    HW1 3264   1.211   2.029   4.188
 1043SOL    HW2 3265   1.142   1.920   4.110
 1044SOL     OW 3266   0.319   3.625  -0.016
 1044SOL    HW1 3267   0.319   3.691   0.054
 1044SOL    HW2 3268   0.306   3.542   0.029
 1045SOL     OW 3269   0.998   3.557   4.648
 1045SOL    HW1 3270   1.004   3.594   4.735
 1045SOL    HW2 3271   1.009   3.631   4.588
 1046SOL     OW 3272   0.361   2.605   4.161
 1046SOL    HW1 3273   0.436   2.598   4.220
 1046SOL    HW2 3274   0.379   2.542   4.091
 1047SOL     OW 3275   0.603   2.047   3.830
 1047SOL    HW1 3276   0.568   2.115   3.887
 1047SOL    HW2 3277   0.667   2.093   3.775
 1048SOL     OW 3278   0.812   3.192   4.591
 1048SOL    HW1 3279   0.819   3.272   4.643
 1048SOL    HW2 3280   0.902   3.176   4.561
 1049SOL     OW 3281   1.035   2.341   4.699
 1049SOL    HW1 3282   0.992   2.342   4.613
 1049SOL    HW2 3283   1.099   2.269   4.693
 1050SOL     OW 3284   0.594   1.936   4.184
 1050SOL    HW1 3285   0.685   1.924   4.210
 1050SOL    HW2 3286   0.572   1.858   4.134
 1051SOL     OW 3287   1.443   3.085   3.765
 1051SOL    HW1 3288   1.511   3.150   3.781
 1051SOL    HW2 3289   1.458   3.056   3.675
 1052SOL     OW 3290   0.277   1.798   3.963
 1052SOL    HW1 3291   0.362   1.773   3.998
 1052SOL    HW2 3292   0.263   1.739   3.888
 1053SOL     OW 3293   0.929   2.162   4.239
 1053SOL    HW1 3294   0.916   2.071   4.267
 1053SOL    HW2 3295   0.884   2.167   4.155
 1054SOL     OW 3296   1.216   3.399   4.578
 1054SOL    HW1 3297   1.141   3.453   4.603
 1054SOL    HW2 3298   1.292   3.455   4.596
 1055SOL     OW 3299   0.439   3.002   4.419
 1055SOL    HW1 3300   0.483   3.085   4.436
 1055SOL    HW2 3301   0.389   3.018   4.339
 1056SOL     OW 3302   1.161   3.602   4.255
 1056SOL    HW1 3303   1.195   3.673   4.200
 1056SOL    HW2 3304   1.229   3.535   4.252
 1057SOL     OW 3305   1.112   2.452   3.689
 1057SOL    HW1 3306   1.139   2.422   3.776
 1057SOL    HW2 3307   1.115   2.373   3.635
 1058SOL     OW 3308   0.948   2.349   4.443
 1058SOL    HW1 3309   0.982   2.428   4.402
 1058SOL    HW2 3310   0.938   2.287   4.371
 1059SOL     OW 3311   0.961   1.781   4.480
 1059SOL    HW1 3312   0.945   1.861   4.530
 1059SOL    HW2 3313   1.054   1.784   4.458
 1060SOL     OW 3314   1.408   2.948   4.509
 1060SOL    HW1 3315   1.376   2.927   4.597
 1060SOL    HW2 3316   1.409   2.864   4.463
 1061SOL     OW 3317   1.449   2.496   4.535
 1061SOL    HW1 3318   1.453   2.540   4.620
 1061SOL    HW2 3319   1.379   2.431   4.545
 1062SOL     OW 3320   1.875   2.716   4.236
 1062SOL    HW1 3321   1.904   2.643   4.290
 1062SOL    HW2 3322   1.817   2.767   4.292
 1063SOL     OW 3323   0.534   3.255   3.920
 1063SOL    HW1 3324   0.549   3.235   4.012
 1063SOL    HW2 3325   0.610   3.308   3.895
 1064SOL     OW 3326   1.689   3.183   4.391
 1064SOL    HW1 3327   1.680   3.153   4.482
 1064SOL    HW2 3328   1.772   3.145   4.362
 1065SOL     OW 3329   1.428   2.337   3.775
 1065SOL    HW1 3330   1.359   2.316   3.837
 1065SOL    HW2 3331   1.407   2.425   3.744
 1066SOL     OW 3332   0.489   2.160   4.078
 1066SOL    HW1 3333   0.481   2.212   4.158
 1066SOL    HW2 3334   0.529   2.078   4.107
 1067SOL     OW 3335   1.090   3.104   4.817
 1067SOL    HW1 3336   1.024   3.150   4.869
 1067SOL    HW2 3337   1.105   3.022   4.864
 1068SOL     OW 3338   1.701   2.968   4.895
 1068SOL    HW1 3339   1.708   2.984   4.801
 1068SOL    HW2 3340   1.668   3.050   4.932
 1069SOL     OW 3341   0.708   2.951   4.147
 1069SOL    HW1 3342   0.703   2.910   4.234
 1069SOL    HW2 3343   0.620   2.943   4.111
 1070SOL     OW 3344   0.317   2.809   4.964
 1070SOL    HW1 3345   0.379   2.862   5.014
 1070SOL    HW2 3346   0.361   2.794   4.881
 1071SOL     OW 3347   0.287   3.043   4.194
 1071SOL    HW1 3348   0.200   3.051   4.234
 1071SOL    HW2 3349   0.287   3.108   4.124
 1072SOL     OW 3350   0.514   2.308   4.561
 1072SOL    HW1 3351   0.441   2.349   4.607
 1072SOL    HW2 3352   0.536   2.231   4.614
 1073SOL     OW 3353   1.272   3.227   4.096
 1073SOL    HW1 3354   1.299   3.314   4.126
 1073SOL    HW2 3355   1.323   3.167   4.150
 1074SOL     OW 3356   1.343   3.223   4.825
 1074SOL    HW1 3357   1.350   3.297   4.884
 1074SOL    HW2 3358   1.250   3.203   4.821
 1075SOL     OW 3359   1.610   2.612   4.177
 1075SOL    HW1 3360   1.617   2.522   4.147
 1075SOL    HW2 3361   1.696   2.651   4.159
 1076SOL     OW 3362   0.489   2.771   4.751
 1076SOL    HW1 3363   0.536   2.850   4.722
 1076SOL    HW2 3364   0.558   2.713   4.784
 1077SOL     OW 3365   1.460   2.643   4.767
 1077SOL    HW1 3366   1.410   2.615   4.844
 1077SOL    HW2 3367   1.440   2.736   4.757
 1078SOL     OW 3368   1.187   2.356   3.940
 1078SOL    HW1 3369   1.198   2.434   3.994
 1078SOL    HW2 3370   1.093   2.338   3.943
 1079SOL     OW 3371   0.393   2.130  -0.023
 1079SOL    HW1 3372   0.384   2.219   0.013
 1079SOL    HW2 3373   0.475   2.098   0.013
 1080SOL     OW 3374   0.080   3.132   0.048
 1080SOL    HW1 3375   0.128   3.113  -0.033
 1080SOL    HW2 3376  -0.005   3.090   0.037
 1081SOL     OW 3377   0.706   2.618   4.832
 1081SOL    HW1 3378   0.682   2.545   4.887
 1081SOL    HW2 3379   0.792   2.645   4.864
 1082SOL     OW 3380   0.412   1.863   4.390
 1082SOL    HW1 3381   0.475   1.898   4.326
 1082SOL    HW2 3382   0.339   1.832   4.336
 1083SOL     OW 3383   1.652   2.349   4.112
 1083SOL    HW1 3384   1.625   2.315   4.197
 1083SOL    HW2 3385   1.639   2.275   4.052
 1084SOL     OW 3386   1.030   2.616   4.649
 1084SOL    HW1 3387   1.021   2.663   4.732
 1084SOL    HW2 3388   1.039   2.524   4.674
 1085SOL     OW 3389   1.647   2.182   3.884
 1085SOL    HW1 3390   1.571   2.219   3.840
 1085SOL    HW2 3391   1.721   2.202   3.826
 1086SOL     OW 3392   1.369   2.587   3.696
 1086SOL    HW1 3393   1.392   2.667   3.743
 1086SOL    HW2 3394   1.274   2.589   3.689
 1087SOL     OW 3395   1.085   3.161   4.550
 1087SOL    HW1 3396   1.094   3.132   4.640
 1087SOL    HW2 3397   1.138   3.241   4.545
 1088SOL     OW 3398   0.253   2.653   4.680
 1088SOL    HW1 3399   0.335   2.700   4.698
 1088SOL    HW2 3400   0.214   2.702   4.607
 1089SOL     OW 3401   0.273   2.383   4.679
 1089SOL    HW1 3402   0.189   2.365   4.720
 1089SOL    HW2 3403   0.278   2.479   4.678
 1090SOL     OW 3404   1.158   1.990   0.174
 1090SOL    HW1 3405   1.213   2.047   0.228
 1090SOL    HW2 3406   1.143   1.913   0.228
 1091SOL     OW 3407   0.060   3.278   3.825
 1091SOL    HW1 3408   0.012   3.360   3.809
 1091SOL    HW2 3409   0.078   3.244   3.738
 1092SOL     OW 3410   0.153   3.686   4.781
 1092SOL    HW1 3411   0.216   3.667   4.850
 1092SOL    HW2 3412   0.073   3.641   4.809
 1093SOL     OW 3413   0.463   3.454   4.583
 1093SOL    HW1 3414   0.521   3.530   4.585
 1093SOL    HW2 3415   0.377   3.490   4.560
 1094SOL     OW 3416   0.963   2.716   4.907
 1094SOL    HW1 3417   1.036   2.770   4.938
 1094SOL    HW2 3418   0.985   2.628   4.936
 1095SOL     OW 3419   0.031   2.353   4.796
 1095SOL    HW1 3420   0.051   2.320   4.884
 1095SOL    HW2 3421   0.004   2.444   4.810
 1096SOL     OW 3422   0.915   2.363   3.986
 1096SOL    HW1 3423   0.835   2.416   3.994
 1096SOL    HW2 3424   0.883   2.273   3.974
 1097SOL     OW 3425   1.735   2.604   4.789
 1097SOL    HW1 3426   1.640   2.602   4.774
 1097SOL    HW2 3427   1.761   2.512   4.793
 1098SOL     OW 3428   0.657   2.420   0.014
 1098SOL    HW1 3429   0.722   2.375   0.068
 1098SOL    HW2 3430   0.573   2.400   0.054
 1099SOL     OW 3431   0.451   2.414   3.980
 1099SOL    HW1 3432   0.465   2.324   4.006
 1099SOL    HW2 3433   0.538   2.453   3.978
 1100SOL     OW 3434   1.352   2.903   4.779
 1100SOL    HW1 3435   1.374   2.989   4.813
 1100SOL    HW2 3436   1.282   2.871   4.836
 1101SOL     OW 3437   1.204   2.768   3.990
 1101SOL    HW1 3438   1.169   2.689   4.030
 1101SOL    HW2 3439   1.140   2.792   3.923
 1102SOL     OW 3440   1.632   3.560   4.827
 1102SOL    HW1 3441   1.628   3.560   4.923
 1102SOL    HW2 3442   1.658   3.471   4.804
 1103SOL     OW 3443   0.157   3.139   4.784
 1103SOL    HW1 3444   0.231   3.199   4.777
 1103SOL    HW2 3445   0.174   3.071   4.718
 1104SOL     OW 3446   1.725   2.009   4.303
 1104SOL    HW1 3447   1.751   2.016   4.211
 1104SOL    HW2 3448   1.768   2.084   4.346
 1105SOL     OW 3449   1.391   3.457   4.196
 1105SOL    HW1 3450   1.443   3.438   4.274
 1105SOL    HW2 3451   1.450   3.504   4.137
 1106SOL     OW 3452   1.207   2.817   4.269
 1106SOL    HW1 3453   1.293   2.787   4.297
 1106SOL    HW2 3454   1.213   2.822   4.173
 1107SOL     OW 3455   0.726   3.461   3.908
 1107SOL    HW1 3456   0.665   3.492   3.975
 1107SOL    HW2 3457   0.690   3.495   3.826
 1108SOL     OW 3458   1.646   3.566   0.103
 1108SOL    HW1 3459   1.616   3.560   0.193
 1108SOL    HW2 3460   1.739   3.545   0.106
 1109SOL     OW 3461   1.852   2.016   4.604
 1109SOL    HW1 3462   1.758   2.030   4.616
 1109SOL    HW2 3463   1.860   1.923   4.583
 1110SOL     OW 3464   0.205   2.269   4.356
 1110SOL    HW1 3465   0.293   2.281   4.322
 1110SOL    HW2 3466   0.216   2.212   4.433
 1111SOL     OW 3467   1.104   3.458   3.808
 1111SOL    HW1 3468   1.136   3.369   3.816
 1111SOL    HW2 3469   1.033   3.453   3.744
 1112SOL     OW 3470   0.773   2.817   0.097
 1112SOL    HW1 3471   0.842   2.835   0.160
 1112SOL    HW2 3472   0.820   2.789   0.018
 1113SOL     OW 3473   0.794   2.762   3.967
 1113SOL    HW1 3474   0.785   2.834   4.030
 1113SOL    HW2 3475   0.875   2.781   3.921
 1114SOL     OW 3476   1.521   3.568   3.792
 1114SOL    HW1 3477   1.474   3.650   3.778
 1114SOL    HW2 3478   1.547   3.540   3.704
 1115SOL     OW 3479   1.029   3.031   4.314
 1115SOL    HW1 3480   1.055   3.074   4.396
 1115SOL    HW2 3481   1.091   2.959   4.304
 1116SOL     OW 3482   0.950   2.010   4.625
 1116SOL    HW1 3483   1.037   2.051   4.627
 1116SOL    HW2 3484   0.890   2.084   4.621
 1117SOL     OW 3485   0.620   3.277   4.184
 1117SOL    HW1 3486   0.597   3.262   4.276
 1117SOL    HW2 3487   0.604   3.370   4.170
 1118SOL     OW 3488   1.628   2.304   4.998
 1118SOL    HW1 3489   1.622   2.213   5.025
 1118SOL    HW2 3490   1.690   2.303   4.925
 1119SOL     OW 3491   0.268   3.235   4.002
 1119SOL    HW1 3492   0.201   3.247   3.935
 1119SOL    HW2 3493   0.351   3.247   3.955
 1120SOL     OW 3494   0.004   2.203   4.064
 1120SOL    HW1 3495   0.088   2.158   4.076
 1120SOL    HW2 3496  -0.037   2.200   4.150
 1121SOL     OW 3497   1.203   3.194   3.834
 1121SOL    HW1 3498   1.283   3.149   3.808
 1121SOL    HW2 3499   1.213   3.208   3.929
 1122SOL     OW 3500   1.432   3.567   4.634
 1122SOL    HW1 3501   1.491   3.562   4.710
 1122SOL    HW2 3502   1.437   3.658   4.605
 1123SOL     OW 3503   1.197   2.211   4.188
 1123SOL    HW1 3504   1.103   2.205   4.205
 1123SOL    HW2 3505   1.203   2.253   4.102
 1124SOL     OW 3506   0.607   2.560   4.305
 1124SOL    HW1 3507   0.616   2.654   4.321
 1124SOL    HW2 3508   0.645   2.519   4.382
 1125SOL     OW 3509   1.747   2.877   0.266
 1125SOL    HW1 3510   1.740   2.961   0.311
 1125SOL    HW2 3511   1.659   2.860   0.232
 1126SOL     OW 3512   0.926   3.131   3.893
 1126SOL    HW1 3513   1.012   3.142   3.853
 1126SOL    HW2 3514   0.865   3.128   3.819
 1127SOL     OW 3515   0.629   3.676   4.584
 1127SOL    HW1 3516   0.681   3.706   4.658
 1127SOL    HW2 3517   0.583   3.754   4.554
 1128SOL     OW 3518   0.781   2.726   4.592
 1128SOL    HW1 3519   0.871   2.695   4.588
 1128SOL    HW2 3520   0.742   2.679   4.666
 1129SOL     OW 3521   1.006   2.798   3.798
 1129SOL    HW1 3522   0.970   2.729   3.742
 1129SOL    HW2 3523   1.006   2.876   3.743
 1130SOL     OW 3524   1.930   3.374   4.680
 1130SOL    HW1 3525   1.844   3.349   4.714
 1130SOL    HW2 3526   1.970   3.291   4.653
 1131SOL     OW 3527   5.035   3.119   4.276
 1131SOL    HW1 3528   4.995   3.138   4.191
 1131SOL    HW2 3529   4.965   3.080   4.328
 1132SOL     OW 3530   1.837   2.043   4.960
 1132SOL    HW1 3531   1.908   2.015   5.018
 1132SOL    HW2 3532   1.760   2.047   5.018
 1133SOL     OW 3533   0.471   2.317   4.297
 1133SOL    HW1 3534   0.490   2.297   4.389
 1133SOL    HW2 3535   0.514   2.402   4.282
 1134SOL     OW 3536   1.689   3.299   4.778
 1134SOL    HW1 3537   1.660   3.264   4.862
 1134SOL    HW2 3538   1.631   3.258   4.714
 1135SOL     OW 3539   0.801   3.489   4.468
 1135SOL    HW1 3540   0.870   3.502   4.533
 1135SOL    HW2 3541   0.733   3.552   4.493
 1136SOL     OW 3542   1.388   1.962   4.729
 1136SOL    HW1 3543   1.374   1.964   4.824
 1136SOL    HW2 3544   1.432   1.879   4.712
 1137SOL     OW 3545   0.903   1.844   4.841
 1137SOL    HW1 3546   0.929   1.899   4.768
 1137SOL    HW2 3547   0.938   1.757   4.820
 1138SOL     OW 3548   1.446   1.830   3.752
 1138SOL    HW1 3549   1.462   1.736   3.742
 1138SOL    HW2 3550   1.466   1.849   3.844
 1139SOL     OW 3551   1.338   2.227   4.422
 1139SOL    HW1 3552   1.425   2.253   4.394
 1139SOL    HW2 3553   1.287   2.223   4.341
 1140SOL     OW 3554   1.593   2.093   4.601
 1140SOL    HW1 3555   1.522   2.056   4.652
 1140SOL    HW2 3556   1.552   2.125   4.521
 1141SOL     OW 3557   4.981   2.908   4.000
 1141SOL    HW1 3558   5.000   2.832   4.055
 1141SOL    HW2 3559   4.961   2.871   3.914
 1142SOL     OW 3560   0.873   3.696   3.967
 1142SOL    HW1 3561   0.964   3.703   3.938
 1142SOL    HW2 3562   0.850   3.604   3.952
 1143SOL     OW 3563   0.285   4.373   0.211
 1143SOL    HW1 3564   0.331   4.434   0.154
 1143SOL    HW2 3565   0.286   4.415   0.297
 1144SOL     OW 3566   0.317   3.936   0.978
 1144SOL    HW1 3567   0.325   3.944   1.073
 1144SOL    HW2 3568   0.223   3.937   0.962
 1145SOL     OW 3569   0.072   4.166   0.596
 1145SOL    HW1 3570   0.149   4.157   0.652
 1145SOL    HW2 3571   0.075   4.089   0.539
 1146SOL     OW 3572   1.096   4.343   0.714
 1146SOL    HW1 3573   1.079   4.413   0.777
 1146SOL    HW2 3574   1.070   4.381   0.629
 1147SOL     OW 3575   1.697   4.453   0.243
 1147SOL    HW1 3576   1.636   4.413   0.305
 1147SOL    HW2 3577   1.675   4.414   0.158
 1148SOL     OW 3578   0.650   4.940   0.987
 1148SOL    HW1 3579   0.630   5.021   1.033
 1148SOL    HW2 3580   0.734   4.955   0.945
 1149SOL     OW 3581   0.808   4.412   1.789
 1149SOL    HW1 3582   0.871   4.365   1.844
 1149SOL    HW2 3583   0.755   4.343   1.749
 1150SOL     OW 3584   0.670   4.650   0.677
 1150SOL    HW1 3585   0.723   4.630   0.754
 1150SOL    HW2 3586   0.710   4.729   0.641
 1151SOL     OW 3587   0.759   4.860   1.747
 1151SOL    HW1 3588   0.780   4.950   1.773
 1151SOL    HW2 3589   0.709   4.869   1.667
 1152SOL     OW 3590   0.456   4.242   1.494
 1152SOL    HW1 3591   0.391   4.172   1.497
 1152SOL    HW2 3592   0.454   4.274   1.404
 1153SOL     OW 3593   1.527   4.041   0.651
 1153SOL    HW1 3594   1.443   4.074   0.682
 1153SOL    HW2 3595   1.528   4.062   0.558
 1154SOL     OW 3596   0.221   4.745   0.973
 1154SOL    HW1 3597   0.279   4.808   0.931
 1154SOL    HW2 3598   0.240   4.662   0.928
 1155SOL     OW 3599   0.501   4.762   0.141
 1155SOL    HW1 3600   0.463   4.685   0.099
 1155SOL    HW2 3601   0.432   4.796   0.198
 1156SOL     OW 3602   1.615   3.865   1.477
 1156SOL    HW1 3603   1.619   3.769   1.470
 1156SOL    HW2 3604   1.660   3.896   1.398
 1157SOL     OW 3605   0.074   4.435   0.569
 1157SOL    HW1 3606   0.031   4.469   0.647
 1157SOL    HW2 3607   0.061   4.340   0.575
 1158SOL     OW 3608   1.756   4.526   0.659
 1158SOL    HW1 3609   1.777   4.540   0.751
 1158SOL    HW2 3610   1.739   4.614   0.625
 1159SOL     OW 3611   1.692   4.777   0.567
 1159SOL    HW1 3612   1.608   4.819   0.585
 1159SOL    HW2 3613   1.695   4.768   0.472
 1160SOL     OW 3614   0.169   4.482   1.673
 1160SOL    HW1 3615   0.138   4.572   1.684
 1160SOL    HW2 3616   0.262   4.492   1.652
 1161SOL     OW 3617   1.250   4.964   1.330
 1161SOL    HW1 3618   1.271   4.973   1.423
 1161SOL    HW2 3619   1.287   5.043   1.290
 1162SOL     OW 3620   0.904   3.617   0.506
 1162SOL    HW1 3621   0.848   3.583   0.575
 1162SOL    HW2 3622   0.905   3.712   0.520
 1163SOL     OW 3623   0.234   4.751   1.247
 1163SOL    HW1 3624   0.230   4.760   1.152
 1163SOL    HW2 3625   0.313   4.699   1.263
 1164SOL     OW 3626   1.458   4.719   0.196
 1164SOL    HW1 3627   1.421   4.804   0.173
 1164SOL    HW2 3628   1.536   4.740   0.249
 1165SOL     OW 3629   0.322   3.896   1.697
 1165SOL    HW1 3630   0.321   3.933   1.785
 1165SOL    HW2 3631   0.411   3.862   1.687
 1166SOL     OW 3632   0.636   4.454   0.209
 1166SOL    HW1 3633   0.582   4.497   0.143
 1166SOL    HW2 3634   0.598   4.367   0.219
 1167SOL     OW 3635   1.364   4.087   0.981
 1167SOL    HW1 3636   1.381   4.044   1.065
 1167SOL    HW2 3637   1.400   4.175   0.991
 1168SOL     OW 3638   0.813   4.310   1.421
 1168SOL    HW1 3639   0.907   4.328   1.421
 1168SOL    HW2 3640   0.802   4.243   1.354
 1169SOL     OW 3641   1.451   4.145   1.822
 1169SOL    HW1 3642   1.521   4.209   1.840
 1169SOL    HW2 3643   1.498   4.067   1.793
 1170SOL     OW 3644   0.939   4.586   1.621
 1170SOL    HW1 3645   0.886   4.526   1.674
 1170SOL    HW2 3646   0.876   4.632   1.566
 1171SOL     OW 3647   1.046   4.110   1.211
 1171SOL    HW1 3648   0.952   4.102   1.230
 1171SOL    HW2 3649   1.061   4.049   1.139
 1172SOL     OW 3650   1.036   4.421   0.453
 1172SOL    HW1 3651   1.029   4.501   0.401
 1172SOL    HW2 3652   1.099   4.367   0.405
 1173SOL     OW 3653  -0.010   4.499   0.825
 1173SOL    HW1 3654   0.086   4.497   0.828
 1173SOL    HW2 3655  -0.035   4.539   0.909
 1174SOL     OW 3656   0.927   4.111   0.092
 1174SOL    HW1 3657   0.917   4.174   0.163
 1174SOL    HW2 3658   0.841   4.108   0.050
 1175SOL     OW 3659   1.665   4.315   1.869
 1175SOL    HW1 3660   1.674   4.327   1.963
 1175SOL    HW2 3661   1.754   4.324   1.835
 1176SOL     OW 3662   1.442   4.886   0.632
 1176SOL    HW1 3663   1.457   4.935   0.713
 1176SOL    HW2 3664   1.407   4.950   0.571
 1177SOL     OW 3665   0.558   3.910   0.852
 1177SOL    HW1 3666   0.471   3.922   0.888
 1177SOL    HW2 3667   0.543   3.873   0.765
 1178SOL     OW 3668   1.712   4.819   0.901
 1178SOL    HW1 3669   1.775   4.859   0.842
 1178SOL    HW2 3670   1.734   4.725   0.900
 1179SOL     OW 3671   0.292   4.753   0.343
 1179SOL    HW1 3672   0.291   4.662   0.374
 1179SOL    HW2 3673   0.203   4.769   0.313
 1180SOL     OW 3674   1.493   4.431   0.687
 1180SOL    HW1 3675   1.581   4.467   0.675
 1180SOL    HW2 3676   1.437   4.508   0.698
 1181SOL     OW 3677   0.263   4.047   1.479
 1181SOL    HW1 3678   0.276   3.988   1.553
 1181SOL    HW2 3679   0.293   3.997   1.402
 1182SOL     OW 3680   1.355   3.878   0.422
 1182SOL    HW1 3681   1.337   3.801   0.475
 1182SOL    HW2 3682   1.278   3.934   0.434
 1183SOL     OW 3683   0.303   4.501   0.453
 1183SOL    HW1 3684   0.217   4.481   0.490
 1183SOL    HW2 3685   0.364   4.489   0.526
 1184SOL     OW 3686   1.632   3.963   1.729
 1184SOL    HW1 3687   1.719   4.003   1.718
 1184SOL    HW2 3688   1.614   3.922   1.644
 1185SOL     OW 3689   0.640   3.883   0.175
 1185SOL    HW1 3690   0.643   3.922   0.262
 1185SOL    HW2 3691   0.548   3.857   0.163
 1186SOL     OW 3692   0.787   3.964   1.768
 1186SOL    HW1 3693   0.877   3.949   1.738
 1186SOL    HW2 3694   0.763   4.048   1.728
 1187SOL     OW 3695   0.955   4.164   0.869
 1187SOL    HW1 3696   0.908   4.215   0.935
 1187SOL    HW2 3697   1.001   4.229   0.816
 1188SOL     OW 3698   0.501   3.820   0.601
 1188SOL    HW1 3699   0.406   3.823   0.611
 1188SOL    HW2 3700   0.516   3.750   0.536
 1189SOL     OW 3701   0.927   3.890   0.568
 1189SOL    HW1 3702   0.993   3.945   0.526
 1189SOL    HW2 3703   0.862   3.952   0.601
 1190SOL     OW 3704   1.069   4.419   1.452
 1190SOL    HW1 3705   1.033   4.479   1.518
 1190SOL    HW2 3706   1.060   4.467   1.369
 1191SOL     OW 3707   0.417   4.903   0.841
 1191SOL    HW1 3708   0.499   4.896   0.890
 1191SOL    HW2 3709   0.435   4.859   0.758
 1192SOL     OW 3710   0.931   4.377   4.895
 1192SOL    HW1 3711   0.961   4.304   4.950
 1192SOL    HW2 3712   0.853   4.343   4.851
 1193SOL     OW 3713   0.142   4.263   1.353
 1193SOL    HW1 3714   0.073   4.307   1.402
 1193SOL    HW2 3715   0.164   4.187   1.408
 1194SOL     OW 3716   0.623   3.890   1.119
 1194SOL    HW1 3717   0.601   3.906   1.027
 1194SOL    HW2 3718   0.665   3.804   1.119
 1195SOL     OW 3719   0.756   4.055   0.716
 1195SOL    HW1 3720   0.823   4.093   0.773
 1195SOL    HW2 3721   0.697   4.009   0.776
 1196SOL     OW 3722   1.076   3.773   0.763
 1196SOL    HW1 3723   1.099   3.839   0.829
 1196SOL    HW2 3724   1.020   3.819   0.701
 1197SOL     OW 3725   1.504   4.992   0.878
 1197SOL    HW1 3726   1.478   5.015   0.967
 1197SOL    HW2 3727   1.576   4.930   0.888
 1198SOL     OW 3728   1.467   4.343   0.953
 1198SOL    HW1 3729   1.404   4.410   0.979
 1198SOL    HW2 3730   1.479   4.357   0.859
 1199SOL     OW 3731   1.965   4.446   0.268
 1199SOL    HW1 3732   1.971   4.422   0.361
 1199SOL    HW2 3733   1.871   4.453   0.252
 1200SOL     OW 3734   1.458   4.243   4.931
 1200SOL    HW1 3735   1.390   4.287   4.881
 1200SOL    HW2 3736   1.428   4.152   4.936
 1201SOL     OW 3737   0.512   4.017   0.406
 1201SOL    HW1 3738   0.525   3.957   0.480
 1201SOL    HW2 3739   0.443   3.976   0.354
 1202SOL     OW 3740   1.781   4.903   1.575
 1202SOL    HW1 3741   1.749   4.875   1.661
 1202SOL    HW2 3742   1.716   4.967   1.545
 1203SOL     OW 3743   1.726   4.826   1.172
 1203SOL    HW1 3744   1.820   4.842   1.176
 1203SOL    HW2 3745   1.706   4.827   1.078
 1204SOL     OW 3746   0.981   3.816   1.412
 1204SOL    HW1 3747   0.889   3.843   1.421
 1204SOL    HW2 3748   0.993   3.805   1.317
 1205SOL     OW 3749   1.007   4.760   1.825
 1205SOL    HW1 3750   0.917   4.791   1.814
 1205SOL    HW2 3751   1.017   4.693   1.758
 1206SOL     OW 3752   0.720   4.712   0.291
 1206SOL    HW1 3753   0.646   4.747   0.240
 1206SOL    HW2 3754   0.703   4.617   0.295
 1207SOL     OW 3755   0.466   4.594   1.264
 1207SOL    HW1 3756   0.524   4.581   1.338
 1207SOL    HW2 3757   0.432   4.507   1.243
 1208SOL     OW 3758   1.301   4.186   1.284
 1208SOL    HW1 3759   1.344   4.102   1.270
 1208SOL    HW2 3760   1.210   4.171   1.261
 1209SOL     OW 3761   0.431   4.801   0.589
 1209SOL    HW1 3762   0.510   4.748   0.587
 1209SOL    HW2 3763   0.393   4.792   0.502
 1210SOL     OW 3764   0.554   4.336   0.937
 1210SOL    HW1 3765   0.468   4.297   0.955
 1210SOL    HW2 3766   0.540   4.388   0.858
 1211SOL     OW 3767   1.516   4.343   0.416
 1211SOL    HW1 3768   1.501   4.359   0.509
 1211SOL    HW2 3769   1.520   4.247   0.408
 1212SOL     OW 3770   0.446   4.482   1.627
 1212SOL    HW1 3771   0.517   4.523   1.579
 1212SOL    HW2 3772   0.443   4.392   1.594
 1213SOL     OW 3773   1.497   4.416   1.679
 1213SOL    HW1 3774   1.567   4.383   1.737
 1213SOL    HW2 3775   1.455   4.485   1.729
 1214SOL     OW 3776   1.044   3.890   1.673
 1214SOL    HW1 3777   1.084   3.811   1.710
 1214SOL    HW2 3778   1.021   3.865   1.583
 1215SOL     OW 3779   0.578   3.805   1.676
 1215SOL    HW1 3780   0.654   3.844   1.720
 1215SOL    HW2 3781   0.598   3.711   1.674
 1216SOL     OW 3782   0.688   4.713   1.135
 1216SOL    HW1 3783   0.604   4.674   1.159
 1216SOL    HW2 3784   0.665   4.791   1.084
 1217SOL     OW 3785   1.300   4.554   1.000
 1217SOL    HW1 3786   1.294   4.619   1.070
 1217SOL    HW2 3787   1.314   4.606   0.921
 1218SOL     OW 3788   1.200   4.251   0.310
 1218SOL    HW1 3789   1.252   4.321   0.271
 1218SOL    HW2 3790   1.207   4.178   0.247
 1219SOL     OW 3791   0.365   3.906   1.260
 1219SOL    HW1 3792   0.456   3.894   1.233
 1219SOL    HW2 3793   0.323   3.822   1.241
 1220SOL     OW 3794   0.010   0.118   1.362
 1220SOL    HW1 3795   0.078   0.185   1.370
 1220SOL    HW2 3796  -0.001   0.107   1.267
 1221SOL     OW 3797   0.794   4.283   1.054
 1221SOL    HW1 3798   0.770   4.229   1.129
 1221SOL    HW2 3799   0.711   4.310   1.016
 1222SOL     OW 3800   1.694   4.780   1.809
 1222SOL    HW1 3801   1.662   4.770   1.899
 1222SOL    HW2 3802   1.784   4.748   1.813
 1223SOL     OW 3803   0.237   3.871   0.637
 1223SOL    HW1 3804   0.184   3.816   0.694
 1223SOL    HW2 3805   0.182   3.888   0.561
 1224SOL     OW 3806   1.543   4.069   0.380
 1224SOL    HW1 3807   1.613   4.033   0.326
 1224SOL    HW2 3808   1.474   4.002   0.379
 1225SOL     OW 3809   1.042   4.460   0.965
 1225SOL    HW1 3810   1.131   4.490   0.982
 1225SOL    HW2 3811   1.008   4.436   1.051
 1226SOL     OW 3812   0.422   4.560   1.891
 1226SOL    HW1 3813   0.512   4.587   1.912
 1226SOL    HW2 3814   0.425   4.536   1.799
 1227SOL     OW 3815   1.579   3.833   0.084
 1227SOL    HW1 3816   1.640   3.873   0.146
 1227SOL    HW2 3817   1.610   3.743   0.074
 1228SOL     OW 3818   1.312   4.522   4.962
 1228SOL    HW1 3819   1.312   4.486   5.051
 1228SOL    HW2 3820   1.404   4.537   4.942
 1229SOL     OW 3821   0.264   4.502   0.852
 1229SOL    HW1 3822   0.272   4.419   0.900
 1229SOL    HW2 3823   0.331   4.495   0.784
 1230SOL     OW 3824   0.288   4.252   0.970
 1230SOL    HW1 3825   0.210   4.220   1.015
 1230SOL    HW2 3826   0.295   4.198   0.891
 1231SOL     OW 3827   1.244   4.097   1.636
 1231SOL    HW1 3828   1.304   4.103   1.711
 1231SOL    HW2 3829   1.172   4.042   1.668
 1232SOL     OW 3830   1.250   3.914   1.412
 1232SOL    HW1 3831   1.254   3.971   1.489
 1232SOL    HW2 3832   1.162   3.875   1.415
 1233SOL     OW 3833   4.960   0.040   0.209
 1233SOL    HW1 3834   4.983  -0.046   0.243
 1233SOL    HW2 3835   5.007   0.046   0.126
 1234SOL     OW 3836   1.027   4.579   1.241
 1234SOL    HW1 3837   0.963   4.642   1.273
 1234SOL    HW2 3838   1.106   4.631   1.224
 1235SOL     OW 3839   0.072   4.161   1.113
 1235SOL    HW1 3840   0.100   4.200   1.196
 1235SOL    HW2 3841  -0.019   4.134   1.129
 1236SOL     OW 3842   0.104   4.235   1.764
 1236SOL    HW1 3843   0.117   4.324   1.731
 1236SOL    HW2 3844   0.130   4.179   1.692
 1237SOL     OW 3845   1.461   4.736   1.666
 1237SOL    HW1 3846   1.545   4.752   1.710
 1237SOL    HW2 3847   1.410   4.687   1.729
 1238SOL     OW 3848   0.860   4.299   0.272
 1238SOL    HW1 3849   0.905   4.334   0.349
 1238SOL    HW2 3850   0.790   4.362   0.255
 1239SOL     OW 3851   1.690   4.382   1.112
 1239SOL    HW1 3852   1.685   4.320   1.184
 1239SOL    HW2 3853   1.612   4.363   1.059
 1240SOL     OW 3854   0.766   4.082   1.260
 1240SOL    HW1 3855   0.755   4.031   1.340
 1240SOL    HW2 3856   0.717   4.032   1.194
 1241SOL     OW 3857   0.511   4.212   0.209
 1241SOL    HW1 3858   0.420   4.245   0.206
 1241SOL    HW2 3859   0.511   4.149   0.280
 1242SOL     OW 3860   0.133   4.888   1.461
 1242SOL    HW1 3861   0.074   4.955   1.426
 1242SOL    HW2 3862   0.159   4.836   1.385
 1243SOL     OW 3863   1.269   4.710   1.229
 1243SOL    HW1 3864   1.320   4.667   1.297
 1243SOL    HW2 3865   1.263   4.801   1.257
 1244SOL     OW 3866   1.355   4.466   0.233
 1244SOL    HW1 3867   1.411   4.429   0.300
 1244SOL    HW2 3868   1.380   4.558   0.228
 1245SOL     OW 3869   4.967   0.091   1.088
 1245SOL    HW1 3870   5.025   0.161   1.060
 1245SOL    HW2 3871   4.968   0.029   1.015
 1246SOL     OW 3872   0.898   3.829   0.095
 1246SOL    HW1 3873   0.807   3.822   0.123
 1246SOL    HW2 3874   0.916   3.923   0.094
 1247SOL     OW 3875   1.757   3.921   0.559
 1247SOL    HW1 3876   1.680   3.960   0.599
 1247SOL    HW2 3877   1.739   3.923   0.465
 1248SOL     OW 3878   1.333   4.658   0.741
 1248SOL    HW1 3879   1.374   4.734   0.700
 1248SOL    HW2 3880   1.240   4.678   0.741
 1249SOL     OW 3881   1.846   3.890   1.016
 1249SOL    HW1 3882   1.873   3.801   0.995
 1249SOL    HW2 3883   1.763   3.903   0.970
 1250SOL     OW 3884   0.314   4.128   0.725
 1250SOL    HW1 3885   0.307   4.034   0.706
 1250SOL    HW2 3886   0.396   4.155   0.685
 1251SOL     OW 3887   0.827   4.738   1.370
 1251SOL    HW1 3888   0.851   4.829   1.387
 1251SOL    HW2 3889   0.783   4.741   1.285
 1252SOL     OW 3890   0.986   4.648   0.294
 1252SOL    HW1 3891   0.896   4.678   0.302
 1252SOL    HW2 3892   1.039   4.719   0.330
 1253SOL     OW 3893   0.345   0.059   1.484
 1253SOL    HW1 3894   0.277  -0.007   1.492
 1253SOL    HW2 3895   0.382   0.046   1.397
 1254SOL     OW 3896   1.578   0.056   1.230
 1254SOL    HW1 3897   1.590   0.072   1.324
 1254SOL    HW2 3898   1.627  -0.025   1.213
 1255SOL     OW 3899   1.070   4.735   0.768
 1255SOL    HW1 3900   1.054   4.828   0.757
 1255SOL    HW2 3901   0.989   4.700   0.804
 1256SOL     OW 3902   1.111   3.966   0.966
 1256SOL    HW1 3903   1.200   4.003   0.967
 1256SOL    HW2 3904   1.057   4.035   0.928
 1257SOL     OW 3905   1.697   4.203   1.321
 1257SOL    HW1 3906   1.639   4.194   1.396
 1257SOL    HW2 3907   1.719   4.113   1.297
 1258SOL     OW 3908   0.085   4.735   1.683
 1258SOL    HW1 3909   0.097   4.794   1.758
 1258SOL    HW2 3910   0.099   4.791   1.607
 1259SOL     OW 3911   0.713   3.883   1.442
 1259SOL    HW1 3912   0.660   3.884   1.522
 1259SOL    HW2 3913   0.686   3.804   1.396
 1260SOL     OW 3914   4.981   4.052   5.013
 1260SOL    HW1 3915   5.001   4.142   5.038
 1260SOL    HW2 3916   4.916   4.060   4.943
 1261SOL     OW 3917   1.419   4.591   1.430
 1261SOL    HW1 3918   1.506   4.588   1.390
 1261SOL    HW2 3919   1.431   4.642   1.510
 1262SOL     OW 3920   0.093   3.961   0.416
 1262SOL    HW1 3921   0.161   3.936   0.353
 1262SOL    HW2 3922   0.011   3.953   0.367
 1263SOL     OW 3923   0.659   4.540   1.457
 1263SOL    HW1 3924   0.719   4.607   1.424
 1263SOL    HW2 3925   0.706   4.458   1.443
 1264SOL     OW 3926   0.695   4.200   1.640
 1264SOL    HW1 3927   0.604   4.201   1.610
 1264SOL    HW2 3928   0.745   4.235   1.567
 1265SOL     OW 3929   1.353   4.979   1.603
 1265SOL    HW1 3930   1.339   5.016   1.690
 1265SOL    HW2 3931   1.384   4.890   1.619
 1266SOL     OW 3932   1.663   4.594   1.303
 1266SOL    HW1 3933   1.678   4.678   1.259
 1266SOL    HW2 3934   1.673   4.528   1.234
 1267SOL     OW 3935   1.149   4.050   0.498
 1267SOL    HW1 3936   1.190   4.079   0.579
 1267SOL    HW2 3937   1.154   4.126   0.439
 1268SOL     OW 3938   0.476   4.458   0.678
 1268SOL    HW1 3939   0.548   4.521   0.670
 1268SOL    HW2 3940   0.512   4.376   0.644
 1269SOL     OW 3941   1.891   4.057   1.684
 1269SOL    HW1 3942   1.948   4.047   1.760
 1269SOL    HW2 3943   1.928   3.997   1.619
 1270SOL     OW 3944   1.851   4.647   1.502
 1270SOL    HW1 3945   1.783   4.619   1.441
 1270SOL    HW2 3946   1.830   4.738   1.521
 1271SOL     OW 3947   0.833   4.625   0.899
 1271SOL    HW1 3948   0.791   4.647   0.983
 1271SOL    HW2 3949   0.898   4.559   0.922
 1272SOL     OW 3950   1.179   4.764   4.946
 1272SOL    HW1 3951   1.087   4.741   4.957
 1272SOL    HW2 3952   1.225   4.680   4.947
 1273SOL     OW 3953   4.974   0.005   0.812
 1273SOL    HW1 3954   5.060   0.001   0.770
 1273SOL    HW2 3955   4.936   0.088   0.785
 1274SOL     OW 3956   1.783   3.951   1.277
 1274SOL    HW1 3957   1.858   3.922   1.328
 1274SOL    HW2 3958   1.804   3.927   1.187
 1275SOL     OW 3959   0.555   4.206   0.603
 1275SOL    HW1 3960   0.633   4.167   0.643
 1275SOL    HW2 3961   0.545   4.159   0.520
 1276SOL     OW 3962   0.373   4.337   1.236
 1276SOL    HW1 3963   0.288   4.320   1.277
 1276SOL    HW2 3964   0.364   4.304   1.147
 1277SOL     OW 3965   1.416   3.937   1.202
 1277SOL    HW1 3966   1.364   3.913   1.278
 1277SOL    HW2 3967   1.464   3.858   1.180
 1278SOL     OW 3968   1.010   3.779   1.145
 1278SOL    HW1 3969   1.052   3.841   1.085
 1278SOL    HW2 3970   1.000   3.699   1.094
 1279SOL     OW 3971   0.738   5.000   0.304
 1279SOL    HW1 3972   0.742   4.905   0.316
 1279SOL    HW2 3973   0.715   5.034   0.390
 1280SOL     OW 3974   1.351   3.722   0.192
 1280SOL    HW1 3975   1.361   3.767   0.275
 1280SOL    HW2 3976   1.424   3.755   0.138
 1281SOL     OW 3977   1.279   4.141   0.723
 1281SOL    HW1 3978   1.225   4.220   0.722
 1281SOL    HW2 3979   1.302   4.129   0.815
 1282SOL     OW 3980   1.590   3.922   0.897
 1282SOL    HW1 3981   1.521   3.972   0.939
 1282SOL    HW2 3982   1.586   3.948   0.805
 1283SOL     OW 3983   5.015   4.772   0.255
 1283SOL    HW1 3984   4.940   4.726   0.292
 1283SOL    HW2 3985   5.004   4.765   0.160
 1284SOL     OW 3986   0.253   4.362   1.987
 1284SOL    HW1 3987   0.303   4.435   1.951
 1284SOL    HW2 3988   0.196   4.334   1.916
 1285SOL     OW 3989   0.254   3.930   2.848
 1285SOL    HW1 3990   0.226   4.021   2.835
 1285SOL    HW2 3991   0.181   3.878   2.812
 1286SOL     OW 3992   0.024   4.184   2.417
 1286SOL    HW1 3993   0.078   4.110   2.447
 1286SOL    HW2 3994  -0.010   4.156   2.332
 1287SOL     OW 3995   1.174   4.465   2.541
 1287SOL    HW1 3996   1.226   4.543   2.518
 1287SOL    HW2 3997   1.238   4.393   2.539
 1288SOL     OW 3998   1.703   4.348   2.136
 1288SOL    HW1 3999   1.638   4.353   2.206
 1288SOL    HW2 4000   1.774   4.405   2.165
 1289SOL     OW 4001   0.731   4.781   2.926
 1289SOL    HW1 4002   0.757   4.771   3.018
 1289SOL    HW2 4003   0.666   4.712   2.912
 1290SOL     OW 4004   0.913   4.409   3.670
 1290SOL    HW1 4005   0.956   4.468   3.732
 1290SOL    HW2 4006   0.939   4.442   3.583
 1291SOL     OW 4007   0.670   4.632   2.559
 1291SOL    HW1 4008   0.748   4.658   2.608
 1291SOL    HW2 4009   0.601   4.691   2.590
 1292SOL     OW 4010   0.814   4.878   3.772
 1292SOL    HW1 4011   0.785   4.913   3.856
 1292SOL    HW2 4012   0.849   4.954   3.725
 1293SOL     OW 4013   0.427   4.097   3.283
 1293SOL    HW1 4014   0.496   4.054   3.334
 1293SOL    HW2 4015   0.415   4.040   3.207
 1294SOL     OW 4016   1.599   4.192   2.623
 1294SOL    HW1 4017   1.583   4.259   2.691
 1294SOL    HW2 4018   1.524   4.200   2.564
 1295SOL     OW 4019   0.145   4.784   2.658
 1295SOL    HW1 4020   0.130   4.844   2.732
 1295SOL    HW2 4021   0.126   4.837   2.581
 1296SOL     OW 4022   0.689   4.638   1.902
 1296SOL    HW1 4023   0.710   4.708   1.841
 1296SOL    HW2 4024   0.733   4.560   1.867
 1297SOL     OW 4025   1.530   3.869   3.220
 1297SOL    HW1 4026   1.618   3.905   3.211
 1297SOL    HW2 4027   1.508   3.886   3.312
 1298SOL     OW 4028   0.220   4.360   2.497
 1298SOL    HW1 4029   0.296   4.302   2.502
 1298SOL    HW2 4030   0.150   4.303   2.463
 1299SOL     OW 4031   1.730   4.630   2.467
 1299SOL    HW1 4032   1.774   4.668   2.543
 1299SOL    HW2 4033   1.656   4.581   2.504
 1300SOL     OW 4034   1.671   4.846   2.315
 1300SOL    HW1 4035   1.682   4.761   2.357
 1300SOL    HW2 4036   1.713   4.908   2.375
 1301SOL     OW 4037   0.122   4.435   3.579
 1301SOL    HW1 4038   0.118   4.530   3.588
 1301SOL    HW2 4039   0.080   4.418   3.495
 1302SOL     OW 4040   1.330   4.958   3.308
 1302SOL    HW1 4041   1.418   4.995   3.301
 1302SOL    HW2 4042   1.323   4.899   3.233
 1303SOL     OW 4043   0.796   3.708   2.411
 1303SOL    HW1 4044   0.833   3.693   2.499
 1303SOL    HW2 4045   0.711   3.749   2.428
 1304SOL     OW 4046   0.273   4.714   3.173
 1304SOL    HW1 4047   0.340   4.646   3.177
 1304SOL    HW2 4048   0.318   4.789   3.134
 1305SOL     OW 4049   1.600   4.736   2.064
 1305SOL    HW1 4050   1.616   4.784   2.146
 1305SOL    HW2 4051   1.537   4.669   2.088
 1306SOL     OW 4052   0.289   3.942   3.755
 1306SOL    HW1 4053   0.255   3.942   3.844
 1306SOL    HW2 4054   0.286   4.033   3.727
 1307SOL     OW 4055   0.572   4.319   2.270
 1307SOL    HW1 4056   0.512   4.393   2.282
 1307SOL    HW2 4057   0.532   4.268   2.199
 1308SOL     OW 4058   1.255   4.107   2.790
 1308SOL    HW1 4059   1.228   4.172   2.854
 1308SOL    HW2 4060   1.312   4.047   2.838
 1309SOL     OW 4061   0.801   4.279   3.346
 1309SOL    HW1 4062   0.892   4.249   3.355
 1309SOL    HW2 4063   0.759   4.253   3.427
 1310SOL     OW 4064   1.275   4.243   3.516
 1310SOL    HW1 4065   1.327   4.251   3.596
 1310SOL    HW2 4066   1.340   4.247   3.445
 1311SOL     OW 4067   0.964   4.561   3.444
 1311SOL    HW1 4068   0.983   4.643   3.490
 1311SOL    HW2 4069   0.876   4.574   3.408
 1312SOL     OW 4070   1.028   4.122   3.015
 1312SOL    HW1 4071   1.019   4.027   3.011
 1312SOL    HW2 4072   0.946   4.152   3.054
 1313SOL     OW 4073   1.011   4.418   2.316
 1313SOL    HW1 4074   1.052   4.426   2.402
 1313SOL    HW2 4075   1.001   4.509   2.286
 1314SOL     OW 4076   0.032   4.533   2.618
 1314SOL    HW1 4077   0.069   4.622   2.624
 1314SOL    HW2 4078   0.104   4.480   2.584
 1315SOL     OW 4079   0.921   3.981   2.125
 1315SOL    HW1 4080   0.894   4.069   2.151
 1315SOL    HW2 4081   0.843   3.942   2.087
 1316SOL     OW 4082   1.689   4.269   3.739
 1316SOL    HW1 4083   1.747   4.313   3.801
 1316SOL    HW2 4084   1.685   4.329   3.664
 1317SOL     OW 4085   1.415   4.926   2.397
 1317SOL    HW1 4086   1.439   4.948   2.487
 1317SOL    HW2 4087   1.498   4.903   2.355
 1318SOL     OW 4088   0.506   3.857   2.772
 1318SOL    HW1 4089   0.419   3.884   2.800
 1318SOL    HW2 4090   0.543   3.934   2.728
 1319SOL     OW 4091   1.838   4.765   2.683
 1319SOL    HW1 4092   1.793   4.756   2.767
 1319SOL    HW2 4093   1.931   4.766   2.706
 1320SOL     OW 4094   0.293   4.684   2.103
 1320SOL    HW1 4095   0.320   4.774   2.088
 1320SOL    HW2 4096   0.328   4.635   2.028
 1321SOL     OW 4097   1.501   4.518   2.579
 1321SOL    HW1 4098   1.507   4.472   2.663
 1321SOL    HW2 4099   1.440   4.589   2.595
 1322SOL     OW 4100   0.198   4.070   3.427
 1322SOL    HW1 4101   0.280   4.078   3.379
 1322SOL    HW2 4102   0.140   4.134   3.386
 1323SOL     OW 4103   1.356   3.885   2.342
 1323SOL    HW1 4104   1.419   3.956   2.337
 1323SOL    HW2 4105   1.361   3.841   2.257
 1324SOL     OW 4106   0.379   4.513   2.307
 1324SOL    HW1 4107   0.314   4.476   2.366
 1324SOL    HW2 4108   0.328   4.557   2.239
 1325SOL     OW 4109   1.478   3.849   3.497
 1325SOL    HW1 4110   1.467   3.849   3.592
 1325SOL    HW2 4111   1.408   3.792   3.465
 1326SOL     OW 4112   0.701   3.867   2.008
 1326SOL    HW1 4113   0.724   3.905   1.924
 1326SOL    HW2 4114   0.686   3.774   1.990
 1327SOL     OW 4115   0.757   4.016   3.654
 1327SOL    HW1 4116   0.844   4.045   3.683
 1327SOL    HW2 4117   0.711   4.097   3.632
 1328SOL     OW 4118   1.442   4.248   3.301
 1328SOL    HW1 4119   1.533   4.234   3.273
 1328SOL    HW2 4120   1.393   4.252   3.219
 1329SOL     OW 4121   0.949   4.287   2.805
 1329SOL    HW1 4122   0.977   4.224   2.871
 1329SOL    HW2 4123   0.929   4.235   2.728
 1330SOL     OW 4124   0.572   3.847   2.451
 1330SOL    HW1 4125   0.483   3.816   2.465
 1330SOL    HW2 4126   0.567   3.901   2.373
 1331SOL     OW 4127   0.295   3.733   2.077
 1331SOL    HW1 4128   0.217   3.729   2.131
 1331SOL    HW2 4129   0.361   3.684   2.125
 1332SOL     OW 4130   0.930   3.952   2.396
 1332SOL    HW1 4131   0.922   3.969   2.302
 1332SOL    HW2 4132   0.884   3.868   2.409
 1333SOL     OW 4133   1.134   4.448   3.260
 1333SOL    HW1 4134   1.128   4.354   3.276
 1333SOL    HW2 4135   1.082   4.487   3.330
 1334SOL     OW 4136   0.483   4.818   2.628
 1334SOL    HW1 4137   0.423   4.798   2.700
 1334SOL    HW2 4138   0.436   4.885   2.577
 1335SOL     OW 4139   0.974   4.240   1.930
 1335SOL    HW1 4140   1.033   4.252   2.004
 1335SOL    HW2 4141   0.948   4.148   1.935
 1336SOL     OW 4142   0.044   4.290   3.338
 1336SOL    HW1 4143  -0.021   4.310   3.270
 1336SOL    HW2 4144   0.127   4.322   3.302
 1337SOL     OW 4145   0.659   3.941   3.081
 1337SOL    HW1 4146   0.564   3.930   3.087
 1337SOL    HW2 4147   0.688   3.870   3.023
 1338SOL     OW 4148   0.866   4.147   2.580
 1338SOL    HW1 4149   0.824   4.226   2.546
 1338SOL    HW2 4150   0.878   4.091   2.504
 1339SOL     OW 4151   0.972   3.717   2.623
 1339SOL    HW1 4152   1.036   3.707   2.553
 1339SOL    HW2 4153   0.989   3.804   2.660
 1340SOL     OW 4154   1.481   4.947   2.663
 1340SOL    HW1 4155   1.504   4.896   2.740
 1340SOL    HW2 4156   1.498   5.038   2.689
 1341SOL     OW 4157   1.528   4.369   2.823
 1341SOL    HW1 4158   1.603   4.356   2.881
 1341SOL    HW2 4159   1.452   4.361   2.880
 1342SOL     OW 4160   1.875   4.529   2.256
 1342SOL    HW1 4161   1.824   4.572   2.325
 1342SOL    HW2 4162   1.920   4.601   2.211
 1343SOL     OW 4163   1.328   4.339   1.978
 1343SOL    HW1 4164   1.263   4.302   2.038
 1343SOL    HW2 4165   1.361   4.263   1.929
 1344SOL     OW 4166   0.566   3.987   2.221
 1344SOL    HW1 4167   0.514   4.056   2.178
 1344SOL    HW2 4168   0.610   3.942   2.149
 1345SOL     OW 4169   1.721   4.851   3.475
 1345SOL    HW1 4170   1.637   4.857   3.519
 1345SOL    HW2 4171   1.722   4.763   3.436
 1346SOL     OW 4172   1.738   4.762   2.944
 1346SOL    HW1 4173   1.824   4.759   2.987
 1346SOL    HW2 4174   1.696   4.841   2.980
 1347SOL     OW 4175   0.928   3.758   3.213
 1347SOL    HW1 4176   0.971   3.817   3.274
 1347SOL    HW2 4177   0.948   3.794   3.126
 1348SOL     OW 4178   1.000   4.784   3.597
 1348SOL    HW1 4179   0.930   4.804   3.660
 1348SOL    HW2 4180   1.030   4.869   3.566
 1349SOL     OW 4181   0.765   4.773   2.130
 1349SOL    HW1 4182   0.696   4.751   2.193
 1349SOL    HW2 4183   0.742   4.725   2.051
 1350SOL     OW 4184   0.479   4.536   3.159
 1350SOL    HW1 4185   0.559   4.537   3.211
 1350SOL    HW2 4186   0.509   4.542   3.068
 1351SOL     OW 4187   1.293   4.214   3.063
 1351SOL    HW1 4188   1.335   4.130   3.046
 1351SOL    HW2 4189   1.199   4.193   3.070
 1352SOL     OW 4190   0.578   4.708   2.314
 1352SOL    HW1 4191   0.616   4.676   2.396
 1352SOL    HW2 4192   0.503   4.651   2.299
 1353SOL     OW 4193   0.604   4.109   2.691
 1353SOL    HW1 4194   0.608   4.180   2.755
 1353SOL    HW2 4195   0.692   4.107   2.652
 1354SOL     OW 4196   1.506   4.378   2.328
 1354SOL    HW1 4197   1.503   4.415   2.417
 1354SOL    HW2 4198   1.464   4.444   2.273
 1355SOL     OW 4199   0.486   4.456   3.497
 1355SOL    HW1 4200   0.441   4.503   3.567
 1355SOL    HW2 4201   0.415   4.419   3.444
 1356SOL     OW 4202   1.641   4.471   3.561
 1356SOL    HW1 4203   1.685   4.505   3.483
 1356SOL    HW2 4204   1.550   4.501   3.552
 1357SOL     OW 4205   1.053   3.729   3.614
 1357SOL    HW1 4206   1.077   3.737   3.706
 1357SOL    HW2 4207   0.998   3.651   3.610
 1358SOL     OW 4208   0.466   3.743   3.786
 1358SOL    HW1 4209   0.540   3.790   3.825
 1358SOL    HW2 4210   0.406   3.811   3.758
 1359SOL     OW 4211   0.562   4.566   2.901
 1359SOL    HW1 4212   0.594   4.480   2.875
 1359SOL    HW2 4213   0.480   4.577   2.853
 1360SOL     OW 4214   1.276   4.719   2.819
 1360SOL    HW1 4215   1.205   4.654   2.820
 1360SOL    HW2 4216   1.284   4.744   2.727
 1361SOL     OW 4217   1.146   4.246   2.155
 1361SOL    HW1 4218   1.099   4.313   2.204
 1361SOL    HW2 4219   1.164   4.177   2.220
 1362SOL     OW 4220   0.387   3.910   3.086
 1362SOL    HW1 4221   0.340   3.924   3.003
 1362SOL    HW2 4222   0.353   3.826   3.118
 1363SOL     OW 4223   0.079   0.018   3.161
 1363SOL    HW1 4224   0.096  -0.034   3.239
 1363SOL    HW2 4225   0.031   0.094   3.192
 1364SOL     OW 4226   0.679   4.317   2.869
 1364SOL    HW1 4227   0.694   4.273   2.952
 1364SOL    HW2 4228   0.767   4.330   2.833
 1365SOL     OW 4229   1.762   4.625   3.754
 1365SOL    HW1 4230   1.801   4.558   3.809
 1365SOL    HW2 4231   1.724   4.577   3.680
 1366SOL     OW 4232   0.320   3.743   2.489
 1366SOL    HW1 4233   0.340   3.692   2.567
 1366SOL    HW2 4234   0.282   3.681   2.427
 1367SOL     OW 4235   1.513   4.102   2.273
 1367SOL    HW1 4236   1.505   4.194   2.299
 1367SOL    HW2 4237   1.533   4.105   2.180
 1368SOL     OW 4238   1.069   4.526   2.785
 1368SOL    HW1 4239   1.106   4.511   2.698
 1368SOL    HW2 4240   1.022   4.445   2.806
 1369SOL     OW 4241   0.387   4.590   3.719
 1369SOL    HW1 4242   0.474   4.622   3.744
 1369SOL    HW2 4243   0.357   4.540   3.795
 1370SOL     OW 4244   1.581   3.888   1.987
 1370SOL    HW1 4245   1.666   3.855   2.016
 1370SOL    HW2 4246   1.594   3.911   1.895
 1371SOL     OW 4247   1.327   4.571   1.837
 1371SOL    HW1 4248   1.277   4.627   1.896
 1371SOL    HW2 4249   1.324   4.484   1.878
 1372SOL     OW 4250   0.312   4.621   2.802
 1372SOL    HW1 4251   0.246   4.609   2.870
 1372SOL    HW2 4252   0.266   4.663   2.730
 1373SOL     OW 4253   0.183   4.191   2.820
 1373SOL    HW1 4254   0.141   4.250   2.882
 1373SOL    HW2 4255   0.204   4.245   2.744
 1374SOL     OW 4256   1.055   4.184   3.373
 1374SOL    HW1 4257   1.127   4.207   3.432
 1374SOL    HW2 4258   1.055   4.088   3.372
 1375SOL     OW 4259   1.073   3.905   3.395
 1375SOL    HW1 4260   1.159   3.867   3.380
 1375SOL    HW2 4261   1.044   3.867   3.478
 1376SOL     OW 4262   4.984   0.125   1.969
 1376SOL    HW1 4263   4.998   0.142   2.062
 1376SOL    HW2 4264   5.015   0.203   1.925
 1377SOL     OW 4265   1.005   4.595   3.065
 1377SOL    HW1 4266   1.055   4.539   3.124
 1377SOL    HW2 4267   1.037   4.572   2.977
 1378SOL     OW 4268   0.051   4.385   2.968
 1378SOL    HW1 4269  -0.038   4.387   2.932
 1378SOL    HW2 4270   0.074   4.477   2.982
 1379SOL     OW 4271   0.186   4.192   3.670
 1379SOL    HW1 4272   0.171   4.283   3.645
 1379SOL    HW2 4273   0.200   4.146   3.588
 1380SOL     OW 4274   1.407   4.609   3.524
 1380SOL    HW1 4275   1.422   4.703   3.533
 1380SOL    HW2 4276   1.393   4.595   3.431
 1381SOL     OW 4277   0.836   4.216   2.232
 1381SOL    HW1 4278   0.891   4.288   2.264
 1381SOL    HW2 4279   0.747   4.249   2.240
 1382SOL     OW 4280   1.727   4.319   3.016
 1382SOL    HW1 4281   1.725   4.265   3.095
 1382SOL    HW2 4282   1.708   4.408   3.046
 1383SOL     OW 4283   0.771   4.185   3.091
 1383SOL    HW1 4284   0.770   4.216   3.182
 1383SOL    HW2 4285   0.728   4.099   3.095
 1384SOL     OW 4286   0.422   4.178   2.086
 1384SOL    HW1 4287   0.388   4.105   2.035
 1384SOL    HW2 4288   0.366   4.252   2.064
 1385SOL     OW 4289   0.166   4.859   3.382
 1385SOL    HW1 4290   0.149   4.809   3.462
 1385SOL    HW2 4291   0.194   4.794   3.318
 1386SOL     OW 4292   1.359   4.801   3.072
 1386SOL    HW1 4293   1.435   4.856   3.053
 1386SOL    HW2 4294   1.324   4.778   2.986
 1387SOL     OW 4295   1.397   4.552   2.143
 1387SOL    HW1 4296   1.323   4.609   2.122
 1387SOL    HW2 4297   1.386   4.477   2.085
 1388SOL     OW 4298   0.134   4.936   2.898
 1388SOL    HW1 4299   0.106   4.968   2.984
 1388SOL    HW2 4300   0.180   5.010   2.859
 1389SOL     OW 4301   1.699   3.942   2.396
 1389SOL    HW1 4302   1.766   4.006   2.421
 1389SOL    HW2 4303   1.632   3.994   2.353
 1390SOL     OW 4304   1.269   4.728   2.531
 1390SOL    HW1 4305   1.180   4.757   2.514
 1390SOL    HW2 4306   1.324   4.788   2.481
 1391SOL     OW 4307   1.865   3.923   2.807
 1391SOL    HW1 4308   1.845   3.854   2.870
 1391SOL    HW2 4309   1.895   3.875   2.729
 1392SOL     OW 4310   0.205   3.994   2.478
 1392SOL    HW1 4311   0.284   4.048   2.484
 1392SOL    HW2 4312   0.238   3.904   2.483
 1393SOL     OW 4313   0.815   4.744   3.186
 1393SOL    HW1 4314   0.888   4.697   3.148
 1393SOL    HW2 4315   0.769   4.679   3.239
 1394SOL     OW 4316   0.997   4.684   2.249
 1394SOL    HW1 4317   1.004   4.733   2.331
 1394SOL    HW2 4318   0.917   4.717   2.208
 1395SOL     OW 4319   0.314   0.082   3.440
 1395SOL    HW1 4320   0.399   0.046   3.466
 1395SOL    HW2 4321   0.259   0.005   3.426
 1396SOL     OW 4322   1.582   4.966   3.049
 1396SOL    HW1 4323   1.602   4.992   3.139
 1396SOL    HW2 4324   1.535   5.041   3.013
 1397SOL     OW 4325   1.007   4.818   2.491
 1397SOL    HW1 4326   0.962   4.780   2.566
 1397SOL    HW2 4327   0.962   4.901   2.474
 1398SOL     OW 4328   1.031   3.967   2.715
 1398SOL    HW1 4329   1.113   4.014   2.727
 1398SOL    HW2 4330   0.977   4.026   2.663
 1399SOL     OW 4331   1.714   4.161   3.251
 1399SOL    HW1 4332   1.739   4.090   3.191
 1399SOL    HW2 4333   1.703   4.118   3.336
 1400SOL     OW 4334   0.156   4.712   3.617
 1400SOL    HW1 4335   0.239   4.681   3.654
 1400SOL    HW2 4336   0.114   4.760   3.689
 1401SOL     OW 4337   0.608   3.943   3.419
 1401SOL    HW1 4338   0.663   3.950   3.497
 1401SOL    HW2 4339   0.638   3.863   3.376
 1402SOL     OW 4340   0.021   4.043   1.939
 1402SOL    HW1 4341  -0.031   3.990   1.878
 1402SOL    HW2 4342   0.052   4.116   1.886
 1403SOL     OW 4343   1.377   4.589   3.245
 1403SOL    HW1 4344   1.355   4.663   3.188
 1403SOL    HW2 4345   1.299   4.534   3.243
 1404SOL     OW 4346   0.030   3.760   2.179
 1404SOL    HW1 4347   0.001   3.731   2.266
 1404SOL    HW2 4348   0.002   3.851   2.173
 1405SOL     OW 4349   0.699   4.532   3.335
 1405SOL    HW1 4350   0.739   4.446   3.324
 1405SOL    HW2 4351   0.629   4.519   3.399
 1406SOL     OW 4352   0.680   4.274   3.594
 1406SOL    HW1 4353   0.745   4.330   3.636
 1406SOL    HW2 4354   0.607   4.333   3.575
 1407SOL     OW 4355   1.454   4.877   3.565
 1407SOL    HW1 4356   1.435   4.921   3.647
 1407SOL    HW2 4357   1.401   4.923   3.500
 1408SOL     OW 4358   1.631   4.556   3.109
 1408SOL    HW1 4359   1.544   4.571   3.146
 1408SOL    HW2 4360   1.643   4.627   3.046
 1409SOL     OW 4361   1.172   4.079   2.381
 1409SOL    HW1 4362   1.086   4.039   2.395
 1409SOL    HW2 4363   1.232   4.006   2.369
 1410SOL     OW 4364   0.721   4.362   2.499
 1410SOL    HW1 4365   0.703   4.452   2.525
 1410SOL    HW2 4366   0.669   4.348   2.420
 1411SOL     OW 4367   1.710   3.995   3.467
 1411SOL    HW1 4368   1.749   4.003   3.554
 1411SOL    HW2 4369   1.630   3.944   3.480
 1412SOL     OW 4370   1.744   4.610   3.353
 1412SOL    HW1 4371   1.839   4.596   3.353
 1412SOL    HW2 4372   1.717   4.585   3.265
 1413SOL     OW 4373   0.884   4.717   2.710
 1413SOL    HW1 4374   0.834   4.746   2.786
 1413SOL    HW2 4375   0.945   4.652   2.744
 1414SOL     OW 4376   1.170   4.682   2.036
 1414SOL    HW1 4377   1.116   4.682   2.115
 1414SOL    HW2 4378   1.112   4.717   1.968
 1415SOL     OW 4379   0.077   4.922   2.425
 1415SOL    HW1 4380  -0.014   4.932   2.452
 1415SOL    HW2 4381   0.075   4.858   2.353
 1416SOL     OW 4382   1.784   3.939   3.111
 1416SOL    HW1 4383   1.880   3.940   3.103
 1416SOL    HW2 4384   1.757   3.861   3.063
 1417SOL     OW 4385   0.422   4.166   2.492
 1417SOL    HW1 4386   0.479   4.173   2.415
 1417SOL    HW2 4387   0.480   4.143   2.564
 1418SOL     OW 4388   0.315   4.349   3.288
 1418SOL    HW1 4389   0.360   4.265   3.278
 1418SOL    HW2 4390   0.364   4.408   3.231
 1419SOL     OW 4391   1.414   3.982   2.989
 1419SOL    HW1 4392   1.442   3.930   3.065
 1419SOL    HW2 4393   1.485   3.972   2.926
 1420SOL     OW 4394   0.976   3.850   2.953
 1420SOL    HW1 4395   0.888   3.814   2.937
 1420SOL    HW2 4396   1.001   3.888   2.869
 1421SOL     OW 4397   0.796   0.048   2.169
 1421SOL    HW1 4398   0.712   0.051   2.216
 1421SOL    HW2 4399   0.803  -0.043   2.138
 1422SOL     OW 4400   1.361   3.771   2.097
 1422SOL    HW1 4401   1.423   3.823   2.046
 1422SOL    HW2 4402   1.408   3.690   2.116
 1423SOL     OW 4403   1.323   4.231   2.553
 1423SOL    HW1 4404   1.273   4.184   2.485
 1423SOL    HW2 4405   1.301   4.185   2.634
 1424SOL     OW 4406   1.594   3.968   2.782
 1424SOL    HW1 4407   1.689   3.957   2.790
 1424SOL    HW2 4408   1.584   4.038   2.718
 1425SOL     OW 4409   0.053   4.755   2.216
 1425SOL    HW1 4410   0.133   4.720   2.177
 1425SOL    HW2 4411  -0.013   4.748   2.147
 1426SOL     OW 4412   0.179   4.248   3.951
 1426SOL    HW1 4413   0.099   4.280   3.992
 1426SOL    HW2 4414   0.161   4.253   3.857
 1427SOL     OW 4415   0.275   3.926   4.700
 1427SOL    HW1 4416   0.278   3.975   4.783
 1427SOL    HW2 4417   0.229   3.845   4.722
 1428SOL     OW 4418   0.007   4.127   4.309
 1428SOL    HW1 4419   0.053   4.209   4.327
 1428SOL    HW2 4420   0.063   4.059   4.347
 1429SOL     OW 4421   1.191   4.353   4.464
 1429SOL    HW1 4422   1.167   4.386   4.550
 1429SOL    HW2 4423   1.114   4.305   4.434
 1430SOL     OW 4424   1.852   4.416   3.899
 1430SOL    HW1 4425   1.944   4.398   3.880
 1430SOL    HW2 4426   1.851   4.440   3.992
 1431SOL     OW 4427   0.823   4.900   4.750
 1431SOL    HW1 4428   0.863   4.963   4.811
 1431SOL    HW2 4429   0.763   4.849   4.803
 1432SOL     OW 4430   0.668   4.666   4.427
 1432SOL    HW1 4431   0.591   4.714   4.457
 1432SOL    HW2 4432   0.683   4.697   4.338
 1433SOL     OW 4433   1.555   4.105   4.504
 1433SOL    HW1 4434   1.490   4.133   4.441
 1433SOL    HW2 4435   1.639   4.118   4.459
 1434SOL     OW 4436   0.159   4.812   4.520
 1434SOL    HW1 4437   0.092   4.854   4.466
 1434SOL    HW2 4438   0.132   4.720   4.522
 1435SOL     OW 4439   0.629   4.671   3.817
 1435SOL    HW1 4440   0.706   4.722   3.791
 1435SOL    HW2 4441   0.585   4.725   3.883
 1436SOL     OW 4442   0.185   4.335   4.373
 1436SOL    HW1 4443   0.240   4.284   4.434
 1436SOL    HW2 4444   0.245   4.361   4.304
 1437SOL     OW 4445   1.775   4.605   4.398
 1437SOL    HW1 4446   1.828   4.557   4.461
 1437SOL    HW2 4447   1.685   4.581   4.417
 1438SOL     OW 4448   1.621   4.830   4.121
 1438SOL    HW1 4449   1.540   4.810   4.169
 1438SOL    HW2 4450   1.664   4.897   4.173
 1439SOL     OW 4451   0.833   3.779   4.234
 1439SOL    HW1 4452   0.739   3.773   4.248
 1439SOL    HW2 4453   0.847   3.737   4.149
 1440SOL     OW 4454   0.181   4.631   4.966
 1440SOL    HW1 4455   0.116   4.700   4.976
 1440SOL    HW2 4456   0.136   4.562   4.917
 1441SOL     OW 4457   1.543   4.721   3.886
 1441SOL    HW1 4458   1.623   4.695   3.839
 1441SOL    HW2 4459   1.574   4.750   3.971
 1442SOL     OW 4460   0.561   4.456   3.983
 1442SOL    HW1 4461   0.636   4.429   4.036
 1442SOL    HW2 4462   0.596   4.523   3.925
 1443SOL     OW 4463   1.296   3.909   4.712
 1443SOL    HW1 4464   1.327   3.937   4.798
 1443SOL    HW2 4465   1.376   3.888   4.664
 1444SOL     OW 4466   1.027   4.420   4.161
 1444SOL    HW1 4467   1.027   4.361   4.237
 1444SOL    HW2 4468   1.119   4.426   4.136
 1445SOL     OW 4469   0.074   4.542   4.509
 1445SOL    HW1 4470  -0.021   4.528   4.507
 1445SOL    HW2 4471   0.109   4.475   4.452
 1446SOL     OW 4472   0.793   4.117   3.991
 1446SOL    HW1 4473   0.850   4.138   3.916
 1446SOL    HW2 4474   0.735   4.049   3.958
 1447SOL     OW 4475   1.389   4.807   4.264
 1447SOL    HW1 4476   1.415   4.834   4.352
 1447SOL    HW2 4477   1.328   4.735   4.278
 1448SOL     OW 4478   0.494   3.907   4.532
 1448SOL    HW1 4479   0.424   3.912   4.597
 1448SOL    HW2 4480   0.525   3.997   4.523
 1449SOL     OW 4481   1.825   4.849   4.644
 1449SOL    HW1 4482   1.919   4.847   4.629
 1449SOL    HW2 4483   1.788   4.868   4.557
 1450SOL     OW 4484   0.487   4.815   3.993
 1450SOL    HW1 4485   0.446   4.843   4.075
 1450SOL    HW2 4486   0.439   4.863   3.925
 1451SOL     OW 4487   1.516   4.496   4.381
 1451SOL    HW1 4488   1.434   4.546   4.381
 1451SOL    HW2 4489   1.526   4.465   4.291
 1452SOL     OW 4490   1.291   3.788   4.096
 1452SOL    HW1 4491   1.271   3.880   4.113
 1452SOL    HW2 4492   1.387   3.785   4.093
 1453SOL     OW 4493   0.406   4.382   4.215
 1453SOL    HW1 4494   0.438   4.419   4.133
 1453SOL    HW2 4495   0.478   4.393   4.276
 1454SOL     OW 4496   0.685   3.878   3.881
 1454SOL    HW1 4497   0.754   3.817   3.906
 1454SOL    HW2 4498   0.713   3.912   3.796
 1455SOL     OW 4499   0.902   4.140   4.609
 1455SOL    HW1 4500   0.939   4.058   4.643
 1455SOL    HW2 4501   0.839   4.168   4.675
 1456SOL     OW 4502   0.560   3.778   4.245
 1456SOL    HW1 4503   0.504   3.787   4.322
 1456SOL    HW2 4504   0.529   3.845   4.185
 1457SOL     OW 4505   0.231   3.621   3.868
 1457SOL    HW1 4506   0.241   3.604   3.962
 1457SOL    HW2 4507   0.316   3.656   3.841
 1458SOL     OW 4508   0.947   4.022   4.193
 1458SOL    HW1 4509   0.890   4.054   4.123
 1458SOL    HW2 4510   0.911   3.936   4.216
 1459SOL     OW 4511   0.450   4.819   4.524
 1459SOL    HW1 4512   0.474   4.911   4.512
 1459SOL    HW2 4513   0.355   4.818   4.516
 1460SOL     OW 4514   0.959   4.162   3.779
 1460SOL    HW1 4515   1.044   4.169   3.822
 1460SOL    HW2 4516   0.947   4.245   3.734
 1461SOL     OW 4517   0.978   4.228   4.364
 1461SOL    HW1 4518   0.941   4.202   4.449
 1461SOL    HW2 4519   0.964   4.152   4.307
 1462SOL     OW 4520   1.013   3.741   4.443
 1462SOL    HW1 4521   0.940   3.760   4.383
 1462SOL    HW2 4522   1.076   3.694   4.389
 1463SOL     OW 4523   1.424   4.829   4.533
 1463SOL    HW1 4524   1.391   4.893   4.596
 1463SOL    HW2 4525   1.416   4.745   4.578
 1464SOL     OW 4526   1.503   4.369   4.627
 1464SOL    HW1 4527   1.516   4.405   4.539
 1464SOL    HW2 4528   1.521   4.275   4.617
 1465SOL     OW 4529   1.830   4.491   4.161
 1465SOL    HW1 4530   1.881   4.421   4.201
 1465SOL    HW2 4531   1.799   4.543   4.235
 1466SOL     OW 4532   1.417   4.283   3.756
 1466SOL    HW1 4533   1.512   4.279   3.749
 1466SOL    HW2 4534   1.397   4.376   3.770
 1467SOL     OW 4535   0.493   3.969   4.055
 1467SOL    HW1 4536   0.481   4.055   4.015
 1467SOL    HW2 4537   0.557   3.925   3.999
 1468SOL     OW 4538   1.605   4.847   4.826
 1468SOL    HW1 4539   1.627   4.927   4.873
 1468SOL    HW2 4540   1.668   4.845   4.753
 1469SOL     OW 4541   0.711   4.747   4.167
 1469SOL    HW1 4542   0.640   4.768   4.105
 1469SOL    HW2 4543   0.775   4.700   4.113
 1470SOL     OW 4544   0.422   4.524   5.027
 1470SOL    HW1 4545   0.344   4.569   4.996
 1470SOL    HW2 4546   0.437   4.454   4.964
 1471SOL     OW 4547   0.362  -0.025   4.176
 1471SOL    HW1 4548   0.442   0.020   4.200
 1471SOL    HW2 4549   0.295   0.011   4.234
 1472SOL     OW 4550   0.570   4.173   4.538
 1472SOL    HW1 4551   0.626   4.193   4.613
 1472SOL    HW2 4552   0.584   4.244   4.476
 1473SOL     OW 4553   1.552   4.419   4.118
 1473SOL    HW1 4554   1.642   4.450   4.108
 1473SOL    HW2 4555   1.558   4.324   4.106
 1474SOL     OW 4556   0.496   4.632   4.728
 1474SOL    HW1 4557   0.559   4.664   4.792
 1474SOL    HW2 4558   0.489   4.702   4.663
 1475SOL     OW 4559   1.344   4.594   4.653
 1475SOL    HW1 4560   1.263   4.564   4.693
 1475SOL    HW2 4561   1.403   4.519   4.662
 1476SOL     OW 4562   1.193   4.215   3.914
 1476SOL    HW1 4563   1.209   4.293   3.967
 1476SOL    HW2 4564   1.263   4.216   3.849
 1477SOL     OW 4565   0.263   4.049   4.950
 1477SOL    HW1 4566   0.300   3.996   5.021
 1477SOL    HW2 4567   0.168   4.050   4.968
 1478SOL     OW 4568   0.096   0.089   4.949
 1478SOL    HW1 4569   0.167   0.065   5.009
 1478SOL    HW2 4570   0.096   0.184   4.948
 1479SOL     OW 4571   0.700   4.243   4.787
 1479SOL    HW1 4572   0.620   4.295   4.792
 1479SOL    HW2 4573   0.692   4.180   4.859
 1480SOL     OW 4574   0.269   3.745   4.342
 1480SOL    HW1 4575   0.267   3.686   4.418
 1480SOL    HW2 4576   0.252   3.832   4.379
 1481SOL     OW 4577   1.540   4.146   4.116
 1481SOL    HW1 4578   1.479   4.158   4.189
 1481SOL    HW2 4579   1.594   4.071   4.142
 1482SOL     OW 4580   1.082   4.493   4.683
 1482SOL    HW1 4581   1.017   4.555   4.651
 1482SOL    HW2 4582   1.041   4.452   4.760
 1483SOL     OW 4583   1.455   4.036   3.880
 1483SOL    HW1 4584   1.487   4.071   3.964
 1483SOL    HW2 4585   1.445   4.112   3.824
 1484SOL     OW 4586   1.349   4.556   3.788
 1484SOL    HW1 4587   1.413   4.616   3.827
 1484SOL    HW2 4588   1.358   4.570   3.694
 1485SOL     OW 4589   0.295   4.456   4.674
 1485SOL    HW1 4590   0.368   4.514   4.692
 1485SOL    HW2 4591   0.244   4.502   4.607
 1486SOL     OW 4592   0.423   4.296   4.864
 1486SOL    HW1 4593   0.377   4.216   4.889
 1486SOL    HW2 4594   0.375   4.329   4.789
 1487SOL     OW 4595   1.180   4.019   0.157
 1487SOL    HW1 4596   1.095   4.049   0.124
 1487SOL    HW2 4597   1.158   3.943   0.212
 1488SOL     OW 4598   4.845   0.015   3.757
 1488SOL    HW1 4599   4.897   0.094   3.742
 1488SOL    HW2 4600   4.909  -0.053   3.777
 1489SOL     OW 4601   0.929   4.634   0.011
 1489SOL    HW1 4602   0.933   4.546  -0.026
 1489SOL    HW2 4603   0.952   4.622   0.103
 1490SOL     OW 4604   0.062   4.301   0.071
 1490SOL    HW1 4605   0.143   4.328   0.114
 1490SOL    HW2 4606   0.061   4.350  -0.011
 1491SOL     OW 4607   0.761   4.349   4.136
 1491SOL    HW1 4608   0.851   4.379   4.142
 1491SOL    HW2 4609   0.767   4.264   4.091
 1492SOL     OW 4610   1.691   4.363   4.972
 1492SOL    HW1 4611   1.612   4.313   4.951
 1492SOL    HW2 4612   1.665   4.455   4.961
 1493SOL     OW 4613   0.667   4.099   0.012
 1493SOL    HW1 4614   0.610   4.154   0.066
 1493SOL    HW2 4615   0.656   4.011   0.047
 1494SOL     OW 4616   0.448   4.208   3.949
 1494SOL    HW1 4617   0.494   4.292   3.950
 1494SOL    HW2 4618   0.355   4.231   3.950
 1495SOL     OW 4619   1.339   4.924   4.781
 1495SOL    HW1 4620   1.423   4.884   4.801
 1495SOL    HW2 4621   1.275   4.868   4.824
 1496SOL     OW 4622   1.284   4.440   4.045
 1496SOL    HW1 4623   1.372   4.435   4.082
 1496SOL    HW2 4624   1.294   4.496   3.968
 1497SOL     OW 4625   0.190   0.047   4.678
 1497SOL    HW1 4626   0.150   0.042   4.765
 1497SOL    HW2 4627   0.177  -0.041   4.642
 1498SOL     OW 4628   1.678   3.928   4.205
 1498SOL    HW1 4629   1.656   3.850   4.255
 1498SOL    HW2 4630   1.724   3.984   4.267
 1499SOL     OW 4631   1.248   4.611   4.395
 1499SOL    HW1 4632   1.275   4.625   4.486
 1499SOL    HW2 4633   1.215   4.521   4.394
 1500SOL     OW 4634   1.748   3.783   4.728
 1500SOL    HW1 4635   1.685   3.818   4.665
 1500SOL    HW2 4636   1.705   3.705   4.764
 1501SOL     OW 4637   0.204   3.990   4.440
 1501SOL    HW1 4638   0.276   4.034   4.395
 1501SOL    HW2 4639   0.232   3.983   4.531
 1502SOL     OW 4640   0.682   4.741   4.920
 1502SOL    HW1 4641   0.761   4.702   4.958
 1502SOL    HW2 4642   0.627   4.762   4.996
 1503SOL     OW 4643   0.902   4.621   4.020
 1503SOL    HW1 4644   0.954   4.625   3.940
 1503SOL    HW2 4645   0.946   4.557   4.075
 1504SOL     OW 4646   1.571   0.080   4.993
 1504SOL    HW1 4647   1.494   0.033   5.025
 1504SOL    HW2 4648   1.540   0.126   4.915
 1505SOL     OW 4649   1.052   4.819   4.419
 1505SOL    HW1 4650   0.998   4.766   4.477
 1505SOL    HW2 4651   1.126   4.763   4.395
 1506SOL     OW 4652   1.029   3.893   4.675
 1506SOL    HW1 4653   1.123   3.907   4.686
 1506SOL    HW2 4654   1.022   3.852   4.589
 1507SOL     OW 4655   1.829   4.130   0.078
 1507SOL    HW1 4656   1.914   4.174   0.078
 1507SOL    HW2 4657   1.767   4.196   0.048
 1508SOL     OW 4658  -0.031   4.048   3.758
 1508SOL    HW1 4659  -0.010   3.966   3.803
 1508SOL    HW2 4660   0.055   4.087   3.739
 1509SOL     OW 4661   4.967   3.839   4.066
 1509SOL    HW1 4662   5.051   3.883   4.052
 1509SOL    HW2 4663   4.977   3.794   4.150
 1510SOL     OW 4664   1.579   4.613   4.970
 1510SOL    HW1 4665   1.543   4.650   5.051
 1510SOL    HW2 4666   1.591   4.689   4.913
 1511SOL     OW 4667   1.211   4.050   4.137
 1511SOL    HW1 4668   1.207   4.097   4.054
 1511SOL    HW2 4669   1.119   4.037   4.161
 1512SOL     OW 4670   0.626   4.393   4.375
 1512SOL    HW1 4671   0.648   4.481   4.405
 1512SOL    HW2 4672   0.686   4.377   4.302
 1513SOL     OW 4673   1.711   4.720   0.301
 1513SOL    HW1 4674   1.789   4.752   0.256
 1513SOL    HW2 4675   1.710   4.626   0.283
 1514SOL     OW 4676   0.892   4.679   4.592
 1514SOL    HW1 4677   0.867   4.749   4.652
 1514SOL    HW2 4678   0.814   4.661   4.541
 1515SOL     OW 4679   1.070   4.600   3.795
 1515SOL    HW1 4680   1.164   4.583   3.798
 1515SOL    HW2 4681   1.060   4.668   3.728
 1516SOL     OW 4682   4.946   4.950   4.372
 1516SOL    HW1 4683   4.886   4.878   4.394
 1516SOL    HW2 4684   4.896   5.029   4.392
 1517SOL     OW 4685   1.873   3.887   4.954
 1517SOL    HW1 4686   1.848   3.973   4.989
 1517SOL    HW2 4687   1.805   3.867   4.890
 1518SOL     OW 4688   0.378   4.111   4.269
 1518SOL    HW1 4689   0.389   4.202   4.244
 1518SOL    HW2 4690   0.436   4.062   4.211
 1519SOL     OW 4691   1.378   3.984   4.965
 1519SOL    HW1 4692   1.448   3.932   5.004
 1519SOL    HW2 4693   1.311   3.989   5.032
 1520SOL     OW 4694   1.016   3.700   4.884
 1520SOL    HW1 4695   0.973   3.737   4.961
 1520SOL    HW2 4696   1.028   3.775   4.825
 1521SOL     OW 4697   0.737   0.018   4.000
 1521SOL    HW1 4698   0.819   0.003   4.048
 1521SOL    HW2 4699   0.673   0.040   4.068
 1522SOL     OW 4700   1.390   3.806   3.760
 1522SOL    HW1 4701   1.299   3.790   3.788
 1522SOL    HW2 4702   1.416   3.885   3.806
 1523SOL     OW 4703   1.365   4.183   4.324
 1523SOL    HW1 4704   1.311   4.244   4.375
 1523SOL    HW2 4705   1.301   4.134   4.272
 1524SOL     OW 4706   1.529   3.837   4.557
 1524SOL    HW1 4707   1.536   3.931   4.540
 1524SOL    HW2 4708   1.545   3.797   4.472
 1525SOL     OW 4709   4.948   4.892   4.085
 1525SOL    HW1 4710   4.951   4.907   4.180
 1525SOL    HW2 4711   4.876   4.830   4.074
 1526SOL     OW 4712   1.997   0.662   0.084
 1526SOL    HW1 4713   1.970   0.699   0.168
 1526SOL    HW2 4714   2.088   0.689   0.074
 1527SOL     OW 4715   2.065   0.256   0.946
 1527SOL    HW1 4716   2.105   0.343   0.952
 1527SOL    HW2 4717   2.060   0.239   0.852
 1528SOL     OW 4718   1.776   0.260   0.582
 1528SOL    HW1 4719   1.724   0.314   0.642
 1528SOL    HW2 4720   1.859   0.248   0.627
 1529SOL     OW 4721   2.402   1.208   1.183
 1529SOL    HW1 4722   2.385   1.200   1.276
 1529SOL    HW2 4723   2.477   1.151   1.167
 1530SOL     OW 4724   3.436   1.465   0.708
 1530SOL    HW1 4725   3.378   1.510   0.645
 1530SOL    HW2 4726   3.381   1.450   0.784
 1531SOL     OW 4727   2.942   0.730   0.678
 1531SOL    HW1 4728   2.960   0.821   0.657
 1531SOL    HW2 4729   2.928   0.728   0.772
 1532SOL     OW 4730   3.626   0.672   0.254
 1532SOL    HW1 4731   3.618   0.584   0.215
 1532SOL    HW2 4732   3.615   0.732   0.180
 1533SOL     OW 4733   2.623   1.053   1.123
 1533SOL    HW1 4734   2.685   1.040   1.195
 1533SOL    HW2 4735   2.671   1.107   1.060
 1534SOL     OW 4736   2.813   0.777   1.857
 1534SOL    HW1 4737   2.819   0.829   1.937
 1534SOL    HW2 4738   2.838   0.837   1.787
 1535SOL     OW 4739   2.560   1.070   0.607
 1535SOL    HW1 4740   2.473   1.105   0.628
 1535SOL    HW2 4741   2.559   1.059   0.512
 1536SOL     OW 4742   2.550   1.039   1.742
 1536SOL    HW1 4743   2.477   1.098   1.723
 1536SOL    HW2 4744   2.529   0.959   1.693
 1537SOL     OW 4745   2.266   1.412   1.079
 1537SOL    HW1 4746   2.309   1.333   1.110
 1537SOL    HW2 4747   2.332   1.456   1.026
 1538SOL     OW 4748   3.330   1.566   1.344
 1538SOL    HW1 4749   3.382   1.486   1.340
 1538SOL    HW2 4750   3.392   1.633   1.373
 1539SOL     OW 4751   2.293   0.439   1.566
 1539SOL    HW1 4752   2.374   0.466   1.609
 1539SOL    HW2 4753   2.300   0.474   1.477
 1540SOL     OW 4754   3.531   0.455   0.690
 1540SOL    HW1 4755   3.518   0.420   0.778
 1540SOL    HW2 4756   3.498   0.544   0.695
 1541SOL     OW 4757   2.118   1.683   0.463
 1541SOL    HW1 4758   2.040   1.699   0.410
 1541SOL    HW2 4759   2.187   1.733   0.419
 1542SOL     OW 4760   3.008   1.303   1.600
 1542SOL    HW1 4761   2.977   1.326   1.513
 1542SOL    HW2 4762   2.930   1.273   1.646
 1543SOL     OW 4763   2.119   1.440   0.577
 1543SOL    HW1 4764   2.200   1.444   0.628
 1543SOL    HW2 4765   2.106   1.529   0.544
 1544SOL     OW 4766   2.145   1.160   0.885
 1544SOL    HW1 4767   2.122   1.209   0.964
 1544SOL    HW2 4768   2.078   1.184   0.821
 1545SOL     OW 4769   2.445   1.818   1.481
 1545SOL    HW1 4770   2.465   1.771   1.562
 1545SOL    HW2 4771   2.478   1.762   1.411
 1546SOL     OW 4772   2.436   1.108   0.087
 1546SOL    HW1 4773   2.350   1.066   0.081
 1546SOL    HW2 4774   2.434   1.176   0.021
 1547SOL     OW 4775   3.370   0.231   1.433
 1547SOL    HW1 4776   3.362   0.214   1.527
 1547SOL    HW2 4777   3.378   0.144   1.394
 1548SOL     OW 4778   2.019   0.635   0.578
 1548SOL    HW1 4779   1.966   0.620   0.500
 1548SOL    HW2 4780   2.073   0.556   0.587
 1549SOL     OW 4781   3.777   1.782   0.338
 1549SOL    HW1 4782   3.838   1.760   0.408
 1549SOL    HW2 4783   3.691   1.785   0.382
 1550SOL     OW 4784   2.014   1.563   0.149
 1550SOL    HW1 4785   1.967   1.630   0.199
 1550SOL    HW2 4786   2.039   1.607   0.068
 1551SOL     OW 4787   3.616   0.901   0.714
 1551SOL    HW1 4788   3.606   0.974   0.774
 1551SOL    HW2 4789   3.701   0.862   0.737
 1552SOL     OW 4790   3.462   1.006   0.507
 1552SOL    HW1 4791   3.510   0.960   0.576
 1552SOL    HW2 4792   3.480   1.098   0.523
 1553SOL     OW 4793   1.994   0.673   1.653
 1553SOL    HW1 4794   1.991   0.768   1.650
 1553SOL    HW2 4795   2.060   0.653   1.720
 1554SOL     OW 4796   2.376   1.444   0.689
 1554SOL    HW1 4797   2.426   1.470   0.611
 1554SOL    HW2 4798   2.370   1.349   0.682
 1555SOL     OW 4799   3.208   1.209   1.352
 1555SOL    HW1 4800   3.238   1.200   1.442
 1555SOL    HW2 4801   3.127   1.261   1.359
 1556SOL     OW 4802   2.782   4.924   0.627
 1556SOL    HW1 4803   2.830   4.985   0.682
 1556SOL    HW2 4804   2.744   4.978   0.558
 1557SOL     OW 4805   2.109   0.915   1.221
 1557SOL    HW1 4806   2.187   0.866   1.246
 1557SOL    HW2 4807   2.107   0.909   1.125
 1558SOL     OW 4808   3.381   0.981   0.166
 1558SOL    HW1 4809   3.321   0.955   0.236
 1558SOL    HW2 4810   3.361   1.073   0.150
 1559SOL     OW 4811   3.106   1.929   1.598
 1559SOL    HW1 4812   3.031   1.912   1.655
 1559SOL    HW2 4813   3.112   1.852   1.542
 1560SOL     OW 4814   2.119   0.357   1.755
 1560SOL    HW1 4815   2.173   0.379   1.679
 1560SOL    HW2 4816   2.160   0.279   1.792
 1561SOL     OW 4817   3.279   1.438   0.943
 1561SOL    HW1 4818   3.361   1.460   0.987
 1561SOL    HW2 4819   3.212   1.451   1.011
 1562SOL     OW 4820   3.589   1.780   0.552
 1562SOL    HW1 4821   3.624   1.707   0.603
 1562SOL    HW2 4822   3.501   1.752   0.527
 1563SOL     OW 4823   2.477   0.710   0.374
 1563SOL    HW1 4824   2.455   0.712   0.467
 1563SOL    HW2 4825   2.561   0.666   0.370
 1564SOL     OW 4826   3.036   0.494   1.016
 1564SOL    HW1 4827   2.989   0.411   1.020
 1564SOL    HW2 4828   3.071   0.498   0.927
 1565SOL     OW 4829   3.491   1.652   0.300
 1565SOL    HW1 4830   3.412   1.642   0.353
 1565SOL    HW2 4831   3.530   1.565   0.298
 1566SOL     OW 4832   2.666   0.644   1.493
 1566SOL    HW1 4833   2.605   0.716   1.475
 1566SOL    HW2 4834   2.655   0.585   1.419
 1567SOL     OW 4835   3.146   0.320   1.789
 1567SOL    HW1 4836   3.153   0.401   1.840
 1567SOL    HW2 4837   3.086   0.342   1.718
 1568SOL     OW 4838   2.889   0.900   1.610
 1568SOL    HW1 4839   2.909   0.809   1.587
 1568SOL    HW2 4840   2.832   0.929   1.538
 1569SOL     OW 4841   2.873   0.301   1.247
 1569SOL    HW1 4842   2.918   0.230   1.293
 1569SOL    HW2 4843   2.883   0.280   1.154
 1570SOL     OW 4844   2.969   0.731   0.387
 1570SOL    HW1 4845   2.943   0.735   0.479
 1570SOL    HW2 4846   2.906   0.788   0.342
 1571SOL     OW 4847   1.980   0.835   0.771
 1571SOL    HW1 4848   2.053   0.842   0.833
 1571SOL    HW2 4849   1.996   0.755   0.722
 1572SOL     OW 4850   1.933   1.707   1.593
 1572SOL    HW1 4851   1.951   1.768   1.664
 1572SOL    HW2 4852   2.017   1.698   1.548
 1573SOL     OW 4853   2.723   0.384   0.172
 1573SOL    HW1 4854   2.733   0.290   0.183
 1573SOL    HW2 4855   2.647   0.394   0.114
 1574SOL     OW 4856   3.621   0.622   1.779
 1574SOL    HW1 4857   3.626   0.625   1.875
 1574SOL    HW2 4858   3.533   0.654   1.759
 1575SOL     OW 4859   3.207   1.136   0.575
 1575SOL    HW1 4860   3.239   1.151   0.665
 1575SOL    HW2 4861   3.275   1.082   0.535
 1576SOL     OW 4862   2.497   0.292   0.911
 1576SOL    HW1 4863   2.471   0.280   1.002
 1576SOL    HW2 4864   2.516   0.204   0.880
 1577SOL     OW 4865   2.838   1.391   0.487
 1577SOL    HW1 4866   2.831   1.484   0.510
 1577SOL    HW2 4867   2.931   1.378   0.466
 1578SOL     OW 4868   2.260   1.753   1.003
 1578SOL    HW1 4869   2.295   1.838   0.975
 1578SOL    HW2 4870   2.171   1.752   0.970
 1579SOL     OW 4871   3.559   1.116   0.870
 1579SOL    HW1 4872   3.547   1.128   0.964
 1579SOL    HW2 4873   3.474   1.142   0.833
 1580SOL     OW 4874   3.110   1.729   1.407
 1580SOL    HW1 4875   3.182   1.667   1.402
 1580SOL    HW2 4876   3.103   1.765   1.318
 1581SOL     OW 4877   2.281   0.869   0.275
 1581SOL    HW1 4878   2.236   0.865   0.359
 1581SOL    HW2 4879   2.365   0.826   0.290
 1582SOL     OW 4880   3.428   0.710   0.679
 1582SOL    HW1 4881   3.374   0.710   0.758
 1582SOL    HW2 4882   3.493   0.777   0.694
 1583SOL     OW 4883   2.321   1.222   1.731
 1583SOL    HW1 4884   2.239   1.271   1.725
 1583SOL    HW2 4885   2.311   1.169   1.810
 1584SOL     OW 4886   3.056   1.746   0.256
 1584SOL    HW1 4887   3.114   1.821   0.244
 1584SOL    HW2 4888   3.097   1.694   0.325
 1585SOL     OW 4889   1.974   0.222   1.417
 1585SOL    HW1 4890   1.995   0.136   1.452
 1585SOL    HW2 4891   1.975   0.280   1.493
 1586SOL     OW 4892   3.415   1.485   0.047
 1586SOL    HW1 4893   3.483   1.476   0.113
 1586SOL    HW2 4894   3.377   1.572   0.063
 1587SOL     OW 4895   2.330   1.835   0.363
 1587SOL    HW1 4896   2.310   1.921   0.326
 1587SOL    HW2 4897   2.389   1.794   0.299
 1588SOL     OW 4898   3.277   0.105   0.517
 1588SOL    HW1 4899   3.237   0.189   0.537
 1588SOL    HW2 4900   3.281   0.102   0.421
 1589SOL     OW 4901   2.040   1.722   1.234
 1589SOL    HW1 4902   1.990   1.799   1.208
 1589SOL    HW2 4903   2.117   1.722   1.177
 1590SOL     OW 4904   2.809   1.669   0.810
 1590SOL    HW1 4905   2.872   1.742   0.802
 1590SOL    HW2 4906   2.793   1.643   0.720
 1591SOL     OW 4907   2.192   0.840   0.529
 1591SOL    HW1 4908   2.271   0.808   0.572
 1591SOL    HW2 4909   2.127   0.772   0.546
 1592SOL     OW 4910   3.375   0.192   1.707
 1592SOL    HW1 4911   3.452   0.245   1.728
 1592SOL    HW2 4912   3.301   0.243   1.741
 1593SOL     OW 4913   2.482   0.162   4.924
 1593SOL    HW1 4914   2.493   0.253   4.950
 1593SOL    HW2 4915   2.571   0.125   4.929
 1594SOL     OW 4916   2.583   0.233   1.676
 1594SOL    HW1 4917   2.558   0.194   1.760
 1594SOL    HW2 4918   2.560   0.326   1.685
 1595SOL     OW 4919   2.745   1.523   1.257
 1595SOL    HW1 4920   2.659   1.560   1.275
 1595SOL    HW2 4921   2.744   1.504   1.163
 1596SOL     OW 4922   3.214   0.639   1.490
 1596SOL    HW1 4923   3.121   0.653   1.509
 1596SOL    HW2 4924   3.214   0.596   1.404
 1597SOL     OW 4925   2.703   1.483   0.984
 1597SOL    HW1 4926   2.751   1.544   0.927
 1597SOL    HW2 4927   2.611   1.501   0.966
 1598SOL     OW 4928   2.712   0.455   0.886
 1598SOL    HW1 4929   2.700   0.527   0.947
 1598SOL    HW2 4930   2.631   0.405   0.891
 1599SOL     OW 4931   2.392   0.011   0.407
 1599SOL    HW1 4932   2.330   0.021   0.480
 1599SOL    HW2 4933   2.348   0.051   0.332
 1600SOL     OW 4934   3.303   1.235   0.088
 1600SOL    HW1 4935   3.216   1.262   0.117
 1600SOL    HW2 4936   3.349   1.316   0.070
 1601SOL     OW 4937   2.241   0.138   0.215
 1601SOL    HW1 4938   2.150   0.151   0.243
 1601SOL    HW2 4939   2.238   0.150   0.120
 1602SOL     OW 4940   2.861   0.239   0.525
 1602SOL    HW1 4941   2.841   0.329   0.552
 1602SOL    HW2 4942   2.777   0.203   0.496
 1603SOL     OW 4943   2.933   0.637   1.539
 1603SOL    HW1 4944   2.949   0.546   1.562
 1603SOL    HW2 4945   2.839   0.641   1.519
 1604SOL     OW 4946   3.241   1.691   0.836
 1604SOL    HW1 4947   3.239   1.600   0.865
 1604SOL    HW2 4948   3.233   1.686   0.741
 1605SOL     OW 4949   2.313   1.176   0.663
 1605SOL    HW1 4950   2.270   1.164   0.748
 1605SOL    HW2 4951   2.246   1.154   0.598
 1606SOL     OW 4952   3.165   1.921   0.619
 1606SOL    HW1 4953   3.076   1.914   0.653
 1606SOL    HW2 4954   3.183   1.834   0.582
 1607SOL     OW 4955   2.858   0.554  -0.004
 1607SOL    HW1 4956   2.815   0.508   0.068
 1607SOL    HW2 4957   2.921   0.490  -0.039
 1608SOL     OW 4958   1.989   0.576   1.396
 1608SOL    HW1 4959   2.004   0.618   1.480
 1608SOL    HW2 4960   1.896   0.552   1.397
 1609SOL     OW 4961   2.424   0.239   1.163
 1609SOL    HW1 4962   2.470   0.219   1.245
 1609SOL    HW2 4963   2.332   0.238   1.186
 1610SOL     OW 4964   2.808   0.489   0.627
 1610SOL    HW1 4965   2.770   0.475   0.713
 1610SOL    HW2 4966   2.857   0.571   0.635
 1611SOL     OW 4967   2.962   0.123   0.746
 1611SOL    HW1 4968   2.937   0.170   0.667
 1611SOL    HW2 4969   3.056   0.111   0.738
 1612SOL     OW 4970   3.281   1.178   0.846
 1612SOL    HW1 4971   3.249   1.129   0.922
 1612SOL    HW2 4972   3.274   1.270   0.872
 1613SOL     OW 4973   3.316   0.671   0.927
 1613SOL    HW1 4974   3.291   0.579   0.917
 1613SOL    HW2 4975   3.397   0.669   0.978
 1614SOL     OW 4976   3.853   0.793   0.340
 1614SOL    HW1 4977   3.816   0.879   0.360
 1614SOL    HW2 4978   3.777   0.738   0.323
 1615SOL     OW 4979   2.420   1.441   0.174
 1615SOL    HW1 4980   2.484   1.381   0.212
 1615SOL    HW2 4981   2.336   1.413   0.210
 1616SOL     OW 4982   3.532   1.255   0.564
 1616SOL    HW1 4983   3.627   1.253   0.580
 1616SOL    HW2 4984   3.501   1.330   0.613
 1617SOL     OW 4985   3.268   0.558   0.191
 1617SOL    HW1 4986   3.310   0.602   0.265
 1617SOL    HW2 4987   3.260   0.627   0.125
 1618SOL     OW 4988   2.311   0.363   0.361
 1618SOL    HW1 4989   2.296   0.283   0.311
 1618SOL    HW2 4990   2.332   0.429   0.295
 1619SOL     OW 4991   3.535   1.254   1.551
 1619SOL    HW1 4992   3.444   1.258   1.581
 1619SOL    HW2 4993   3.559   1.162   1.563
 1620SOL     OW 4994   2.955   1.353   1.327
 1620SOL    HW1 4995   2.876   1.406   1.315
 1620SOL    HW2 4996   2.939   1.274   1.275
 1621SOL     OW 4997   3.467   1.682   1.685
 1621SOL    HW1 4998   3.520   1.605   1.703
 1621SOL    HW2 4999   3.416   1.695   1.765
 1622SOL     OW 5000   2.935   1.146   1.154
 1622SOL    HW1 5001   3.019   1.114   1.120
 1622SOL    HW2 5002   2.883   1.166   1.076
 1623SOL     OW 5003   3.487   1.143   1.135
 1623SOL    HW1 5004   3.517   1.058   1.168
 1623SOL    HW2 5005   3.393   1.132   1.123
 1624SOL     OW 5006   2.720   0.006   1.324
 1624SOL    HW1 5007   2.661   0.076   1.352
 1624SOL    HW2 5008   2.808   0.039   1.346
 1625SOL     OW 5009   2.782   1.193   1.757
 1625SOL    HW1 5010   2.706   1.134   1.758
 1625SOL    HW2 5011   2.851   1.143   1.801
 1626SOL     OW 5012   2.569   1.077   0.335
 1626SOL    HW1 5013   2.598   1.167   0.325
 1626SOL    HW2 5014   2.515   1.060   0.258
 1627SOL     OW 5015   2.342   0.766   1.250
 1627SOL    HW1 5016   2.380   0.777   1.162
 1627SOL    HW2 5017   2.314   0.675   1.252
 1628SOL     OW 5018   3.200   0.543   1.232
 1628SOL    HW1 5019   3.264   0.475   1.213
 1628SOL    HW2 5020   3.133   0.532   1.164
 1629SOL     OW 5021   1.815   1.590   1.329
 1629SOL    HW1 5022   1.899   1.632   1.314
 1629SOL    HW2 5023   1.834   1.496   1.326
 1630SOL     OW 5024   2.099   1.092   0.500
 1630SOL    HW1 5025   2.126   1.001   0.507
 1630SOL    HW2 5026   2.072   1.102   0.408
 1631SOL     OW 5027   2.352   0.498   0.797
 1631SOL    HW1 5028   2.286   0.512   0.866
 1631SOL    HW2 5029   2.406   0.427   0.830
 1632SOL     OW 5030   3.099   1.349   0.422
 1632SOL    HW1 5031   3.151   1.425   0.447
 1632SOL    HW2 5032   3.139   1.276   0.469
 1633SOL     OW 5033   3.128   1.513   1.165
 1633SOL    HW1 5034   3.201   1.528   1.225
 1633SOL    HW2 5035   3.067   1.459   1.214
 1634SOL     OW 5036   3.397   0.675   0.409
 1634SOL    HW1 5037   3.406   0.694   0.503
 1634SOL    HW2 5038   3.483   0.695   0.373
 1635SOL     OW 5039   2.283   1.484   1.348
 1635SOL    HW1 5040   2.296   1.398   1.388
 1635SOL    HW2 5041   2.247   1.465   1.261
 1636SOL     OW 5042   2.308   0.822   1.676
 1636SOL    HW1 5043   2.230   0.876   1.672
 1636SOL    HW2 5044   2.285   0.750   1.734
 1637SOL     OW 5045   3.368   0.702   1.720
 1637SOL    HW1 5046   3.315   0.771   1.760
 1637SOL    HW2 5047   3.317   0.673   1.645
 1638SOL     OW 5048   2.834   0.131   1.637
 1638SOL    HW1 5049   2.747   0.169   1.651
 1638SOL    HW2 5050   2.827   0.042   1.670
 1639SOL     OW 5051   2.254   0.139   1.855
 1639SOL    HW1 5052   2.252   0.074   1.785
 1639SOL    HW2 5053   2.346   0.143   1.881
 1640SOL     OW 5054   2.471   0.851   1.013
 1640SOL    HW1 5055   2.510   0.850   0.926
 1640SOL    HW2 5056   2.513   0.925   1.057
 1641SOL     OW 5057   3.190   0.811   1.132
 1641SOL    HW1 5058   3.204   0.736   1.191
 1641SOL    HW2 5059   3.223   0.781   1.047
 1642SOL     OW 5060   3.042   0.472   0.313
 1642SOL    HW1 5061   2.997   0.555   0.334
 1642SOL    HW2 5062   3.118   0.499   0.261
 1643SOL     OW 5063   2.159   0.259   1.215
 1643SOL    HW1 5064   2.094   0.233   1.281
 1643SOL    HW2 5065   2.118   0.237   1.131
 1644SOL     OW 5066   1.909   1.335   1.292
 1644SOL    HW1 5067   1.932   1.332   1.200
 1644SOL    HW2 5068   1.956   1.262   1.332
 1645SOL     OW 5069   2.642   0.638   1.092
 1645SOL    HW1 5070   2.712   0.691   1.130
 1645SOL    HW2 5071   2.578   0.702   1.061
 1646SOL     OW 5072   3.619   0.978   1.852
 1646SOL    HW1 5073   3.710   1.004   1.835
 1646SOL    HW2 5074   3.578   0.980   1.765
 1647SOL     OW 5075   2.207   5.001   0.621
 1647SOL    HW1 5076   2.266   4.968   0.688
 1647SOL    HW2 5077   2.170   4.922   0.581
 1648SOL     OW 5078   3.409   0.402   0.450
 1648SOL    HW1 5079   3.464   0.400   0.528
 1648SOL    HW2 5080   3.411   0.494   0.421
 1649SOL     OW 5081   2.902   0.729   0.945
 1649SOL    HW1 5082   2.882   0.778   1.025
 1649SOL    HW2 5083   2.949   0.652   0.975
 1650SOL     OW 5084   2.845   1.630   1.743
 1650SOL    HW1 5085   2.849   1.724   1.762
 1650SOL    HW2 5086   2.837   1.626   1.647
 1651SOL     OW 5087   3.636   1.462   1.709
 1651SOL    HW1 5088   3.729   1.481   1.697
 1651SOL    HW2 5089   3.617   1.394   1.645
 1652SOL     OW 5090   2.239   1.041   1.924
 1652SOL    HW1 5091   2.198   1.012   2.006
 1652SOL    HW2 5092   2.174   1.021   1.857
 1653SOL     OW 5093   3.342   0.312   0.090
 1653SOL    HW1 5094   3.303   0.388   0.131
 1653SOL    HW2 5095   3.322   0.239   0.148
 1654SOL     OW 5096   3.252   0.772   0.023
 1654SOL    HW1 5097   3.166   0.814   0.033
 1654SOL    HW2 5098   3.314   0.838   0.055
 1655SOL     OW 5099   2.768   1.216   0.952
 1655SOL    HW1 5100   2.746   1.309   0.964
 1655SOL    HW2 5101   2.782   1.206   0.858
 1656SOL     OW 5102   2.189   0.896   0.948
 1656SOL    HW1 5103   2.181   0.989   0.927
 1656SOL    HW2 5104   2.283   0.882   0.962
 1657SOL     OW 5105   2.168   0.509   1.001
 1657SOL    HW1 5106   2.214   0.514   1.085
 1657SOL    HW2 5107   2.079   0.538   1.021
 1658SOL     OW 5108   2.963   0.368   1.586
 1658SOL    HW1 5109   2.914   0.289   1.611
 1658SOL    HW2 5110   2.990   0.351   1.495
 1659SOL     OW 5111   2.971   0.098   1.401
 1659SOL    HW1 5112   2.939   0.103   1.491
 1659SOL    HW2 5113   3.046   0.038   1.406
 1660SOL     OW 5114   1.814   1.373   0.130
 1660SOL    HW1 5115   1.824   1.325   0.212
 1660SOL    HW2 5116   1.882   1.440   0.132
 1661SOL     OW 5117   2.011   1.766   0.907
 1661SOL    HW1 5118   1.955   1.844   0.910
 1661SOL    HW2 5119   1.949   1.693   0.913
 1662SOL     OW 5120   2.441   1.566   0.923
 1662SOL    HW1 5121   2.369   1.627   0.943
 1662SOL    HW2 5122   2.416   1.527   0.839
 1663SOL     OW 5123   2.835   0.801   1.212
 1663SOL    HW1 5124   2.797   0.863   1.274
 1663SOL    HW2 5125   2.927   0.794   1.239
 1664SOL     OW 5126   1.927   0.554   1.125
 1664SOL    HW1 5127   1.958   0.588   1.209
 1664SOL    HW2 5128   1.840   0.594   1.114
 1665SOL     OW 5129   2.186   0.608   1.847
 1665SOL    HW1 5130   2.253   0.594   1.914
 1665SOL    HW2 5131   2.165   0.521   1.815
 1666SOL     OW 5132   3.160   0.955   1.596
 1666SOL    HW1 5133   3.182   0.943   1.688
 1666SOL    HW2 5134   3.065   0.953   1.592
 1667SOL     OW 5135   2.699   0.563   0.381
 1667SOL    HW1 5136   2.739   0.526   0.459
 1667SOL    HW2 5137   2.717   0.499   0.312
 1668SOL     OW 5138   3.539   0.684   1.074
 1668SOL    HW1 5139   3.546   0.764   1.126
 1668SOL    HW2 5140   3.624   0.641   1.086
 1669SOL     OW 5141   2.151   1.570   1.780
 1669SOL    HW1 5142   2.180   1.600   1.694
 1669SOL    HW2 5143   2.125   1.479   1.767
 1670SOL     OW 5144   2.656   0.456   1.299
 1670SOL    HW1 5145   2.736   0.407   1.280
 1670SOL    HW2 5146   2.639   0.505   1.219
 1671SOL     OW 5147   2.846   1.681   1.463
 1671SOL    HW1 5148   2.941   1.689   1.448
 1671SOL    HW2 5149   2.816   1.623   1.393
 1672SOL     OW 5150   2.362   0.560   0.174
 1672SOL    HW1 5151   2.402   0.616   0.241
 1672SOL    HW2 5152   2.311   0.620   0.120
 1673SOL     OW 5153   2.064   1.123   1.391
 1673SOL    HW1 5154   2.047   1.078   1.474
 1673SOL    HW2 5155   2.070   1.052   1.327
 1674SOL     OW 5156   3.214   1.082   1.111
 1674SOL    HW1 5157   3.210   1.119   1.199
 1674SOL    HW2 5158   3.206   0.988   1.124
 1675SOL     OW 5159   3.205   0.866   0.337
 1675SOL    HW1 5160   3.269   0.809   0.379
 1675SOL    HW2 5161   3.120   0.824   0.354
 1676SOL     OW 5162   3.584   1.779   1.145
 1676SOL    HW1 5163   3.568   1.766   1.238
 1676SOL    HW2 5164   3.620   1.867   1.138
 1677SOL     OW 5165   3.085   1.797   1.136
 1677SOL    HW1 5166   3.167   1.825   1.094
 1677SOL    HW2 5167   3.081   1.702   1.119
 1678SOL     OW 5168   2.002   1.360   1.031
 1678SOL    HW1 5169   1.953   1.427   0.984
 1678SOL    HW2 5170   2.088   1.399   1.048
 1679SOL     OW 5171   2.468   1.674   1.708
 1679SOL    HW1 5172   2.462   1.658   1.802
 1679SOL    HW2 5173   2.486   1.588   1.670
 1680SOL     OW 5174   2.766   0.111   0.184
 1680SOL    HW1 5175   2.859   0.124   0.203
 1680SOL    HW2 5176   2.763   0.091   0.090
 1681SOL     OW 5177   3.570   0.120   0.513
 1681SOL    HW1 5178   3.594   0.047   0.570
 1681SOL    HW2 5179   3.474   0.121   0.516
 1682SOL     OW 5180   2.058   1.835   1.803
 1682SOL    HW1 5181   2.095   1.880   1.880
 1682SOL    HW2 5182   2.113   1.757   1.793
 1683SOL     OW 5183   2.974   0.993   0.630
 1683SOL    HW1 5184   2.915   1.064   0.653
 1683SOL    HW2 5185   3.055   1.036   0.601
 1684SOL     OW 5186   2.680   1.226   1.499
 1684SOL    HW1 5187   2.616   1.297   1.506
 1684SOL    HW2 5188   2.720   1.221   1.586
 1685SOL     OW 5189   2.501   1.712   0.184
 1685SOL    HW1 5190   2.596   1.713   0.195
 1685SOL    HW2 5191   2.481   1.621   0.160
 1686SOL     OW 5192   3.519   1.755   1.429
 1686SOL    HW1 5193   3.613   1.737   1.428
 1686SOL    HW2 5194   3.492   1.739   1.519
 1687SOL     OW 5195   3.724   0.166   0.932
 1687SOL    HW1 5196   3.747   0.093   0.989
 1687SOL    HW2 5197   3.807   0.212   0.918
 1688SOL     OW 5198   2.038   0.209   0.675
 1688SOL    HW1 5199   2.082   0.286   0.639
 1688SOL    HW2 5200   2.094   0.136   0.652
 1689SOL     OW 5201   3.042   1.705   4.976
 1689SOL    HW1 5202   3.031   1.712   5.071
 1689SOL    HW2 5203   2.982   1.769   4.939
 1690SOL     OW 5204   2.714   0.975   1.397
 1690SOL    HW1 5205   2.630   0.937   1.421
 1690SOL    HW2 5206   2.707   1.067   1.422
 1691SOL     OW 5207   2.810   0.925   0.263
 1691SOL    HW1 5208   2.744   0.957   0.324
 1691SOL    HW2 5209   2.774   0.944   0.176
 1692SOL     OW 5210   3.312   1.750   0.038
 1692SOL    HW1 5211   3.287   1.820   0.099
 1692SOL    HW2 5212   3.233   1.733  -0.013
 1693SOL     OW 5213   2.309   1.227   1.445
 1693SOL    HW1 5214   2.320   1.210   1.539
 1693SOL    HW2 5215   2.223   1.191   1.424
 1694SOL     OW 5216   3.533   1.357   1.302
 1694SOL    HW1 5217   3.528   1.319   1.389
 1694SOL    HW2 5218   3.516   1.284   1.242
 1695SOL     OW 5219   2.791   1.196   0.679
 1695SOL    HW1 5220   2.709   1.155   0.652
 1695SOL    HW2 5221   2.806   1.265   0.614
 1696SOL     OW 5222   2.879   0.256   0.974
 1696SOL    HW1 5223   2.823   0.323   0.935
 1696SOL    HW2 5224   2.912   0.206   0.900
 1697SOL     OW 5225   2.504   1.518   0.457
 1697SOL    HW1 5226   2.445   1.563   0.396
 1697SOL    HW2 5227   2.548   1.452   0.403
 1698SOL     OW 5228   3.599   0.383   1.440
 1698SOL    HW1 5229   3.641   0.349   1.361
 1698SOL    HW2 5230   3.511   0.346   1.438
 1699SOL     OW 5231   2.171   1.387   0.292
 1699SOL    HW1 5232   2.149   1.398   0.384
 1699SOL    HW2 5233   2.118   1.452   0.246
 1700SOL     OW 5234   2.564   0.217   1.403
 1700SOL    HW1 5235   2.562   0.221   1.498
 1700SOL    HW2 5236   2.591   0.304   1.376
 1701SOL     OW 5237   3.369   0.867   1.440
 1701SOL    HW1 5238   3.298   0.919   1.478
 1701SOL    HW2 5239   3.337   0.777   1.443
 1702SOL     OW 5240   1.986   0.188   0.283
 1702SOL    HW1 5241   1.943   0.270   0.307
 1702SOL    HW2 5242   1.914   0.133   0.251
 1703SOL     OW 5243   3.054   1.332   0.146
 1703SOL    HW1 5244   3.064   1.340   0.240
 1703SOL    HW2 5245   2.964   1.301   0.134
 1704SOL     OW 5246   2.480   0.847   1.468
 1704SOL    HW1 5247   2.419   0.837   1.541
 1704SOL    HW2 5248   2.428   0.830   1.390
 1705SOL     OW 5249   3.341   1.855   1.022
 1705SOL    HW1 5250   3.422   1.817   1.055
 1705SOL    HW2 5251   3.311   1.793   0.955
 1706SOL     OW 5252   2.536   0.502   1.685
 1706SOL    HW1 5253   2.591   0.510   1.763
 1706SOL    HW2 5254   2.579   0.557   1.620
 1707SOL     OW 5255   3.274   1.249   1.630
 1707SOL    HW1 5256   3.183   1.277   1.625
 1707SOL    HW2 5257   3.283   1.210   1.717
 1708SOL     OW 5258   2.201   1.675   1.528
 1708SOL    HW1 5259   2.268   1.742   1.513
 1708SOL    HW2 5260   2.216   1.610   1.459
 1709SOL     OW 5261   3.563   0.905   1.240
 1709SOL    HW1 5262   3.648   0.924   1.279
 1709SOL    HW2 5263   3.505   0.891   1.315
 1710SOL     OW 5264   3.161   0.356   0.535
 1710SOL    HW1 5265   3.249   0.375   0.504
 1710SOL    HW2 5266   3.103   0.388   0.466
 1711SOL     OW 5267   2.411   0.720   0.644
 1711SOL    HW1 5268   2.481   0.764   0.692
 1711SOL    HW2 5269   2.393   0.641   0.695
 1712SOL     OW 5270   3.596   0.356   1.713
 1712SOL    HW1 5271   3.588   0.449   1.735
 1712SOL    HW2 5272   3.609   0.356   1.618
 1713SOL     OW 5273   3.572   0.981   1.576
 1713SOL    HW1 5274   3.497   0.940   1.534
 1713SOL    HW2 5275   3.641   0.915   1.573
 1714SOL     OW 5276   2.789   1.260   0.075
 1714SOL    HW1 5277   2.786   1.298  -0.013
 1714SOL    HW2 5278   2.763   1.169   0.062
 1715SOL     OW 5279   2.594   1.796   0.942
 1715SOL    HW1 5280   2.680   1.775   0.905
 1715SOL    HW2 5281   2.546   1.714   0.938
 1716SOL     OW 5282   2.609   0.860   0.777
 1716SOL    HW1 5283   2.703   0.842   0.780
 1716SOL    HW2 5284   2.600   0.936   0.720
 1717SOL     OW 5285   3.026   0.924   0.047
 1717SOL    HW1 5286   2.990   0.935   0.136
 1717SOL    HW2 5287   2.953   0.890  -0.004
 1718SOL     OW 5288   3.689   1.569   0.700
 1718SOL    HW1 5289   3.605   1.528   0.717
 1718SOL    HW2 5290   3.715   1.606   0.785
 1719SOL     OW 5291   2.045   1.310   1.754
 1719SOL    HW1 5292   1.996   1.313   1.836
 1719SOL    HW2 5293   2.033   1.220   1.722
 1720SOL     OW 5294   1.968   1.234   0.689
 1720SOL    HW1 5295   2.001   1.320   0.663
 1720SOL    HW2 5296   1.999   1.175   0.620
 1721SOL     OW 5297   2.521   1.403   1.669
 1721SOL    HW1 5298   2.576   1.406   1.748
 1721SOL    HW2 5299   2.449   1.345   1.693
 1722SOL     OW 5300   3.722   0.320   1.211
 1722SOL    HW1 5301   3.807   0.277   1.205
 1722SOL    HW2 5302   3.734   0.403   1.164
 1723SOL     OW 5303   2.185   0.421   0.591
 1723SOL    HW1 5304   2.254   0.447   0.653
 1723SOL    HW2 5305   2.232   0.401   0.510
 1724SOL     OW 5306   3.498   1.517   1.075
 1724SOL    HW1 5307   3.523   1.467   1.153
 1724SOL    HW2 5308   3.544   1.600   1.085
 1725SOL     OW 5309   2.230   0.515   1.283
 1725SOL    HW1 5310   2.149   0.541   1.325
 1725SOL    HW2 5311   2.219   0.421   1.265
 1726SOL     OW 5312   2.732   1.649   0.537
 1726SOL    HW1 5313   2.710   1.740   0.557
 1726SOL    HW2 5314   2.647   1.607   0.522
 1727SOL     OW 5315   3.349   0.315   1.174
 1727SOL    HW1 5316   3.360   0.297   1.267
 1727SOL    HW2 5317   3.335   0.229   1.135
 1728SOL     OW 5318   2.694   0.053   1.050
 1728SOL    HW1 5319   2.704   0.036   1.144
 1728SOL    HW2 5320   2.759   0.120   1.031
 1729SOL     OW 5321   2.651   1.338   0.298
 1729SOL    HW1 5322   2.720   1.351   0.364
 1729SOL    HW2 5323   2.699   1.318   0.218
 1730SOL     OW 5324   2.493   1.639   1.273
 1730SOL    HW1 5325   2.424   1.580   1.303
 1730SOL    HW2 5326   2.461   1.675   1.191
 1731SOL     OW 5327   3.259   0.092   0.242
 1731SOL    HW1 5328   3.164   0.107   0.244
 1731SOL    HW2 5329   3.268  -0.002   0.223
 1732SOL     OW 5330   3.115   0.506   0.760
 1732SOL    HW1 5331   3.083   0.585   0.718
 1732SOL    HW2 5332   3.133   0.446   0.688
 1733SOL     OW 5333   3.509   0.348   0.938
 1733SOL    HW1 5334   3.580   0.285   0.946
 1733SOL    HW2 5335   3.472   0.354   1.027
 1734SOL     OW 5336   2.778   1.736   0.266
 1734SOL    HW1 5337   2.765   1.708   0.357
 1734SOL    HW2 5338   2.873   1.734   0.254
 1735SOL     OW 5339   2.074   0.672   2.111
 1735SOL    HW1 5340   2.106   0.592   2.153
 1735SOL    HW2 5341   2.097   0.661   2.018
 1736SOL     OW 5342   2.072   0.310   2.754
 1736SOL    HW1 5343   2.115   0.390   2.785
 1736SOL    HW2 5344   2.128   0.278   2.683
 1737SOL     OW 5345   1.897   0.453   2.436
 1737SOL    HW1 5346   1.904   0.371   2.485
 1737SOL    HW2 5347   1.926   0.431   2.348
 1738SOL     OW 5348   2.467   1.321   2.931
 1738SOL    HW1 5349   2.540   1.336   2.871
 1738SOL    HW2 5350   2.481   1.233   2.964
 1739SOL     OW 5351   3.515   1.520   2.557
 1739SOL    HW1 5352   3.534   1.430   2.528
 1739SOL    HW2 5353   3.422   1.520   2.578
 1740SOL     OW 5354   3.024   0.740   2.540
 1740SOL    HW1 5355   2.983   0.733   2.626
 1740SOL    HW2 5356   3.077   0.820   2.545
 1741SOL     OW 5357   3.639   0.568   2.055
 1741SOL    HW1 5358   3.681   0.488   2.024
 1741SOL    HW2 5359   3.571   0.538   2.115
 1742SOL     OW 5360   2.665   1.089   2.856
 1742SOL    HW1 5361   2.745   1.093   2.909
 1742SOL    HW2 5362   2.663   1.173   2.811
 1743SOL     OW 5363   2.694   0.746   3.664
 1743SOL    HW1 5364   2.715   0.786   3.748
 1743SOL    HW2 5365   2.729   0.657   3.670
 1744SOL     OW 5366   2.529   1.038   2.473
 1744SOL    HW1 5367   2.575   1.047   2.389
 1744SOL    HW2 5368   2.537   0.945   2.495
 1745SOL     OW 5369   2.611   1.116   3.657
 1745SOL    HW1 5370   2.574   1.050   3.717
 1745SOL    HW2 5371   2.534   1.154   3.614
 1746SOL     OW 5372   2.310   1.537   2.971
 1746SOL    HW1 5373   2.354   1.453   2.961
 1746SOL    HW2 5374   2.308   1.574   2.883
 1747SOL     OW 5375   3.368   1.513   3.219
 1747SOL    HW1 5376   3.395   1.545   3.304
 1747SOL    HW2 5377   3.418   1.432   3.207
 1748SOL     OW 5378   2.256   0.492   3.277
 1748SOL    HW1 5379   2.222   0.418   3.328
 1748SOL    HW2 5380   2.330   0.455   3.229
 1749SOL     OW 5381   3.345   0.376   2.473
 1749SOL    HW1 5382   3.260   0.418   2.477
 1749SOL    HW2 5383   3.338   0.301   2.532
 1750SOL     OW 5384   2.140   1.761   2.359
 1750SOL    HW1 5385   2.159   1.849   2.391
 1750SOL    HW2 5386   2.207   1.744   2.293
 1751SOL     OW 5387   3.001   1.435   3.667
 1751SOL    HW1 5388   3.007   1.530   3.678
 1751SOL    HW2 5389   2.907   1.416   3.666
 1752SOL     OW 5390   2.120   1.482   2.364
 1752SOL    HW1 5391   2.215   1.470   2.356
 1752SOL    HW2 5392   2.109   1.577   2.375
 1753SOL     OW 5393   2.104   1.043   2.756
 1753SOL    HW1 5394   2.173   1.084   2.703
 1753SOL    HW2 5395   2.058   0.986   2.694
 1754SOL     OW 5396   2.431   1.844   3.246
 1754SOL    HW1 5397   2.479   1.896   3.310
 1754SOL    HW2 5398   2.451   1.886   3.162
 1755SOL     OW 5399   2.489   0.971   2.010
 1755SOL    HW1 5400   2.398   0.994   1.988
 1755SOL    HW2 5401   2.535   0.977   1.926
 1756SOL     OW 5402   3.285   0.130   3.194
 1756SOL    HW1 5403   3.321   0.218   3.198
 1756SOL    HW2 5404   3.356   0.076   3.159
 1757SOL     OW 5405   2.105   0.632   2.475
 1757SOL    HW1 5406   2.175   0.568   2.460
 1757SOL    HW2 5407   2.024   0.581   2.465
 1758SOL     OW 5408   3.824   1.857   2.157
 1758SOL    HW1 5409   3.848   1.810   2.236
 1758SOL    HW2 5410   3.838   1.950   2.178
 1759SOL     OW 5411   1.962   1.620   1.984
 1759SOL    HW1 5412   2.042   1.604   1.934
 1759SOL    HW2 5413   1.922   1.696   1.941
 1760SOL     OW 5414   3.560   0.895   2.529
 1760SOL    HW1 5415   3.623   0.939   2.586
 1760SOL    HW2 5416   3.543   0.958   2.459
 1761SOL     OW 5417   3.484   1.068   2.335
 1761SOL    HW1 5418   3.403   1.119   2.341
 1761SOL    HW2 5419   3.488   1.042   2.243
 1762SOL     OW 5420   1.978   0.755   3.405
 1762SOL    HW1 5421   1.916   0.827   3.401
 1762SOL    HW2 5422   1.940   0.688   3.348
 1763SOL     OW 5423   2.426   1.372   2.588
 1763SOL    HW1 5424   2.508   1.341   2.627
 1763SOL    HW2 5425   2.369   1.296   2.590
 1764SOL     OW 5426   3.167   1.206   3.291
 1764SOL    HW1 5427   3.201   1.158   3.215
 1764SOL    HW2 5428   3.094   1.257   3.257
 1765SOL     OW 5429   2.645   4.951   2.536
 1765SOL    HW1 5430   2.670   4.993   2.618
 1765SOL    HW2 5431   2.675   5.012   2.468
 1766SOL     OW 5432   2.082   1.023   3.037
 1766SOL    HW1 5433   1.991   0.994   3.051
 1766SOL    HW2 5434   2.087   1.041   2.943
 1767SOL     OW 5435   3.464   1.014   2.071
 1767SOL    HW1 5436   3.407   1.077   2.026
 1767SOL    HW2 5437   3.528   0.988   2.005
 1768SOL     OW 5438   3.093   1.844   3.477
 1768SOL    HW1 5439   3.070   1.930   3.442
 1768SOL    HW2 5440   3.114   1.791   3.400
 1769SOL     OW 5441   2.187   0.239   3.689
 1769SOL    HW1 5442   2.234   0.158   3.707
 1769SOL    HW2 5443   2.108   0.235   3.744
 1770SOL     OW 5444   3.409   1.365   2.853
 1770SOL    HW1 5445   3.462   1.444   2.857
 1770SOL    HW2 5446   3.330   1.385   2.904
 1771SOL     OW 5447   3.614   1.699   2.375
 1771SOL    HW1 5448   3.584   1.639   2.444
 1771SOL    HW2 5449   3.547   1.691   2.307
 1772SOL     OW 5450   2.479   0.748   2.183
 1772SOL    HW1 5451   2.415   0.775   2.248
 1772SOL    HW2 5452   2.485   0.823   2.123
 1773SOL     OW 5453   3.157   0.410   2.809
 1773SOL    HW1 5454   3.072   0.367   2.821
 1773SOL    HW2 5455   3.213   0.342   2.771
 1774SOL     OW 5456   3.387   1.706   2.206
 1774SOL    HW1 5457   3.346   1.790   2.226
 1774SOL    HW2 5458   3.369   1.692   2.113
 1775SOL     OW 5459   2.644   0.494   3.331
 1775SOL    HW1 5460   2.624   0.430   3.399
 1775SOL    HW2 5461   2.598   0.574   3.359
 1776SOL     OW 5462   3.277   0.443   3.521
 1776SOL    HW1 5463   3.274   0.497   3.600
 1776SOL    HW2 5464   3.262   0.504   3.450
 1777SOL     OW 5465   2.815   0.835   3.434
 1777SOL    HW1 5466   2.765   0.804   3.510
 1777SOL    HW2 5467   2.862   0.757   3.403
 1778SOL     OW 5468   2.847   0.373   3.123
 1778SOL    HW1 5469   2.775   0.412   3.172
 1778SOL    HW2 5470   2.925   0.417   3.156
 1779SOL     OW 5471   2.941   0.716   2.277
 1779SOL    HW1 5472   2.972   0.727   2.367
 1779SOL    HW2 5473   2.853   0.680   2.286
 1780SOL     OW 5474   1.977   0.838   2.612
 1780SOL    HW1 5475   1.906   0.853   2.550
 1780SOL    HW2 5476   2.032   0.772   2.572
 1781SOL     OW 5477   1.967   1.792   3.518
 1781SOL    HW1 5478   2.045   1.807   3.465
 1781SOL    HW2 5479   1.985   1.839   3.600
 1782SOL     OW 5480   2.733   0.425   2.092
 1782SOL    HW1 5481   2.827   0.417   2.111
 1782SOL    HW2 5482   2.729   0.446   1.999
 1783SOL     OW 5483   3.610   0.605   3.666
 1783SOL    HW1 5484   3.622   0.585   3.759
 1783SOL    HW2 5485   3.600   0.519   3.625
 1784SOL     OW 5486   3.272   1.223   2.402
 1784SOL    HW1 5487   3.275   1.224   2.498
 1784SOL    HW2 5488   3.282   1.314   2.376
 1785SOL     OW 5489   2.470   0.240   2.737
 1785SOL    HW1 5490   2.432   0.231   2.824
 1785SOL    HW2 5491   2.554   0.196   2.742
 1786SOL     OW 5492   2.826   1.432   2.313
 1786SOL    HW1 5493   2.870   1.501   2.263
 1786SOL    HW2 5494   2.888   1.359   2.313
 1787SOL     OW 5495   3.755   0.995   2.691
 1787SOL    HW1 5496   3.840   1.014   2.730
 1787SOL    HW2 5497   3.692   1.044   2.745
 1788SOL     OW 5498   3.145   1.696   3.242
 1788SOL    HW1 5499   3.210   1.626   3.241
 1788SOL    HW2 5500   3.123   1.710   3.149
 1789SOL     OW 5501   2.136   0.938   2.151
 1789SOL    HW1 5502   2.162   0.959   2.241
 1789SOL    HW2 5503   2.129   0.843   2.151
 1790SOL     OW 5504   3.347   0.744   2.571
 1790SOL    HW1 5505   3.285   0.816   2.569
 1790SOL    HW2 5506   3.433   0.787   2.566
 1791SOL     OW 5507   2.378   1.243   3.558
 1791SOL    HW1 5508   2.314   1.292   3.610
 1791SOL    HW2 5509   2.346   1.152   3.560
 1792SOL     OW 5510   2.981   1.597   2.164
 1792SOL    HW1 5511   2.961   1.687   2.191
 1792SOL    HW2 5512   3.018   1.606   2.077
 1793SOL     OW 5513   2.110   0.323   3.444
 1793SOL    HW1 5514   2.145   0.283   3.523
 1793SOL    HW2 5515   2.018   0.340   3.464
 1794SOL     OW 5516   3.545   1.307   1.919
 1794SOL    HW1 5517   3.626   1.263   1.946
 1794SOL    HW2 5518   3.572   1.370   1.853
 1795SOL     OW 5519   2.321   1.684   2.169
 1795SOL    HW1 5520   2.350   1.610   2.223
 1795SOL    HW2 5521   2.380   1.681   2.093
 1796SOL     OW 5522   3.123   0.054   2.231
 1796SOL    HW1 5523   3.079   0.128   2.273
 1796SOL    HW2 5524   3.154   0.088   2.148
 1797SOL     OW 5525   2.030   1.801   3.074
 1797SOL    HW1 5526   2.074   1.723   3.106
 1797SOL    HW2 5527   2.003   1.779   2.985
 1798SOL     OW 5528   2.752   1.778   2.716
 1798SOL    HW1 5529   2.779   1.852   2.663
 1798SOL    HW2 5530   2.769   1.701   2.662
 1799SOL     OW 5531   2.303   0.805   2.384
 1799SOL    HW1 5532   2.364   0.801   2.458
 1799SOL    HW2 5533   2.227   0.755   2.413
 1800SOL     OW 5534   3.395   0.200   3.545
 1800SOL    HW1 5535   3.400   0.188   3.640
 1800SOL    HW2 5536   3.342   0.279   3.533
 1801SOL     OW 5537   2.521   0.103   1.908
 1801SOL    HW1 5538   2.547   0.102   2.001
 1801SOL    HW2 5539   2.532   0.013   1.879
 1802SOL     OW 5540   2.554   0.334   3.538
 1802SOL    HW1 5541   2.590   0.327   3.626
 1802SOL    HW2 5542   2.459   0.332   3.551
 1803SOL     OW 5543   2.753   1.492   3.111
 1803SOL    HW1 5544   2.667   1.529   3.128
 1803SOL    HW2 5545   2.768   1.507   3.017
 1804SOL     OW 5546   3.176   0.597   3.310
 1804SOL    HW1 5547   3.080   0.602   3.319
 1804SOL    HW2 5548   3.190   0.546   3.230
 1805SOL     OW 5549   2.674   1.356   2.749
 1805SOL    HW1 5550   2.768   1.337   2.751
 1805SOL    HW2 5551   2.667   1.438   2.700
 1806SOL     OW 5552   2.739   0.508   2.746
 1806SOL    HW1 5553   2.802   0.580   2.751
 1806SOL    HW2 5554   2.668   0.534   2.804
 1807SOL     OW 5555   2.402   4.927   2.332
 1807SOL    HW1 5556   2.407   4.918   2.428
 1807SOL    HW2 5557   2.313   4.900   2.310
 1808SOL     OW 5558   3.309   1.177   1.904
 1808SOL    HW1 5559   3.239   1.237   1.930
 1808SOL    HW2 5560   3.389   1.230   1.908
 1809SOL     OW 5561   2.153   0.157   2.112
 1809SOL    HW1 5562   2.091   0.086   2.127
 1809SOL    HW2 5563   2.178   0.149   2.020
 1810SOL     OW 5564   2.738   0.165   2.375
 1810SOL    HW1 5565   2.704   0.244   2.418
 1810SOL    HW2 5566   2.830   0.183   2.360
 1811SOL     OW 5567   2.900   0.584   3.345
 1811SOL    HW1 5568   2.935   0.525   3.412
 1811SOL    HW2 5569   2.808   0.560   3.336
 1812SOL     OW 5570   3.242   1.547   2.615
 1812SOL    HW1 5571   3.166   1.498   2.647
 1812SOL    HW2 5572   3.250   1.621   2.675
 1813SOL     OW 5573   2.298   1.129   2.577
 1813SOL    HW1 5574   2.381   1.093   2.547
 1813SOL    HW2 5575   2.239   1.122   2.501
 1814SOL     OW 5576   3.049   2.004   2.424
 1814SOL    HW1 5577   3.062   2.098   2.437
 1814SOL    HW2 5578   3.135   1.972   2.396
 1815SOL     OW 5579   2.770   0.512   1.833
 1815SOL    HW1 5580   2.784   0.606   1.845
 1815SOL    HW2 5581   2.844   0.484   1.779
 1816SOL     OW 5582   1.863   0.604   3.200
 1816SOL    HW1 5583   1.800   0.642   3.139
 1816SOL    HW2 5584   1.946   0.608   3.154
 1817SOL     OW 5585   2.363   0.227   2.991
 1817SOL    HW1 5586   2.407   0.300   3.035
 1817SOL    HW2 5587   2.291   0.203   3.049
 1818SOL     OW 5588   2.672   0.405   2.489
 1818SOL    HW1 5589   2.693   0.440   2.576
 1818SOL    HW2 5590   2.681   0.481   2.430
 1819SOL     OW 5591   2.750   0.086   2.760
 1819SOL    HW1 5592   2.799   0.164   2.786
 1819SOL    HW2 5593   2.814   0.015   2.764
 1820SOL     OW 5594   3.268   1.205   2.675
 1820SOL    HW1 5595   3.184   1.247   2.691
 1820SOL    HW2 5596   3.331   1.258   2.724
 1821SOL     OW 5597   3.346   0.657   2.830
 1821SOL    HW1 5598   3.282   0.586   2.837
 1821SOL    HW2 5599   3.354   0.673   2.736
 1822SOL     OW 5600   3.653   0.783   2.229
 1822SOL    HW1 5601   3.699   0.862   2.202
 1822SOL    HW2 5602   3.657   0.725   2.153
 1823SOL     OW 5603   2.351   1.338   2.028
 1823SOL    HW1 5604   2.414   1.300   2.089
 1823SOL    HW2 5605   2.265   1.317   2.064
 1824SOL     OW 5606   3.598   1.272   2.483
 1824SOL    HW1 5607   3.689   1.245   2.478
 1824SOL    HW2 5608   3.551   1.208   2.429
 1825SOL     OW 5609   3.181   0.535   1.955
 1825SOL    HW1 5610   3.196   0.625   1.985
 1825SOL    HW2 5611   3.267   0.493   1.963
 1826SOL     OW 5612   2.376   0.304   2.193
 1826SOL    HW1 5613   2.301   0.249   2.172
 1826SOL    HW2 5614   2.452   0.246   2.181
 1827SOL     OW 5615   3.583   1.181   3.428
 1827SOL    HW1 5616   3.556   1.172   3.519
 1827SOL    HW2 5617   3.605   1.092   3.401
 1828SOL     OW 5618   2.974   1.331   3.143
 1828SOL    HW1 5619   2.897   1.388   3.150
 1828SOL    HW2 5620   2.945   1.257   3.090
 1829SOL     OW 5621   3.462   1.607   3.457
 1829SOL    HW1 5622   3.538   1.550   3.455
 1829SOL    HW2 5623   3.443   1.620   3.550
 1830SOL     OW 5624   2.926   1.137   2.950
 1830SOL    HW1 5625   3.009   1.098   2.977
 1830SOL    HW2 5626   2.949   1.196   2.879
 1831SOL     OW 5627   3.572   1.140   2.843
 1831SOL    HW1 5628   3.512   1.068   2.859
 1831SOL    HW2 5629   3.517   1.218   2.842
 1832SOL     OW 5630   2.842   0.105   3.196
 1832SOL    HW1 5631   2.772   0.103   3.261
 1832SOL    HW2 5632   2.838   0.194   3.160
 1833SOL     OW 5633   2.867   1.058   3.574
 1833SOL    HW1 5634   2.780   1.090   3.598
 1833SOL    HW2 5635   2.850   0.981   3.520
 1834SOL     OW 5636   2.638   1.068   2.215
 1834SOL    HW1 5637   2.633   1.163   2.205
 1834SOL    HW2 5638   2.581   1.033   2.147
 1835SOL     OW 5639   2.250   0.846   3.163
 1835SOL    HW1 5640   2.345   0.859   3.153
 1835SOL    HW2 5641   2.211   0.918   3.112
 1836SOL     OW 5642   3.202   0.445   3.087
 1836SOL    HW1 5643   3.292   0.416   3.099
 1836SOL    HW2 5644   3.187   0.439   2.992
 1837SOL     OW 5645   1.884   1.515   3.230
 1837SOL    HW1 5646   1.973   1.547   3.216
 1837SOL    HW2 5647   1.882   1.431   3.185
 1838SOL     OW 5648   2.130   1.121   2.366
 1838SOL    HW1 5649   2.060   1.164   2.415
 1838SOL    HW2 5650   2.134   1.169   2.283
 1839SOL     OW 5651   2.435   0.515   2.672
 1839SOL    HW1 5652   2.358   0.521   2.729
 1839SOL    HW2 5653   2.468   0.426   2.684
 1840SOL     OW 5654   3.064   1.307   2.239
 1840SOL    HW1 5655   3.097   1.396   2.249
 1840SOL    HW2 5656   3.123   1.253   2.292
 1841SOL     OW 5657   3.203   1.419   3.022
 1841SOL    HW1 5658   3.253   1.450   3.096
 1841SOL    HW2 5659   3.120   1.388   3.060
 1842SOL     OW 5660   3.382   0.736   2.293
 1842SOL    HW1 5661   3.373   0.733   2.388
 1842SOL    HW2 5662   3.469   0.773   2.277
 1843SOL     OW 5663   2.152   1.576   3.189
 1843SOL    HW1 5664   2.178   1.506   3.248
 1843SOL    HW2 5665   2.205   1.563   3.111
 1844SOL     OW 5666   2.242   0.786   3.431
 1844SOL    HW1 5667   2.147   0.778   3.434
 1844SOL    HW2 5668   2.262   0.801   3.339
 1845SOL     OW 5669   3.461   0.823   3.593
 1845SOL    HW1 5670   3.373   0.826   3.630
 1845SOL    HW2 5671   3.497   0.741   3.624
 1846SOL     OW 5672   3.084   0.077   3.611
 1846SOL    HW1 5673   3.086   0.120   3.526
 1846SOL    HW2 5674   3.018   0.008   3.601
 1847SOL     OW 5675   2.435   4.984   3.501
 1847SOL    HW1 5676   2.392   5.003   3.584
 1847SOL    HW2 5677   2.363   4.976   3.438
 1848SOL     OW 5678   2.481   0.875   2.846
 1848SOL    HW1 5679   2.535   0.952   2.865
 1848SOL    HW2 5680   2.488   0.863   2.752
 1849SOL     OW 5681   3.392   0.935   2.910
 1849SOL    HW1 5682   3.434   0.912   2.992
 1849SOL    HW2 5683   3.367   0.852   2.871
 1850SOL     OW 5684   3.000   0.470   2.150
 1850SOL    HW1 5685   2.990   0.557   2.189
 1850SOL    HW2 5686   3.061   0.483   2.078
 1851SOL     OW 5687   2.147   0.204   3.191
 1851SOL    HW1 5688   2.133   0.242   3.278
 1851SOL    HW2 5689   2.061   0.208   3.149
 1852SOL     OW 5690   1.869   1.267   3.121
 1852SOL    HW1 5691   1.890   1.245   3.030
 1852SOL    HW2 5692   1.776   1.248   3.129
 1853SOL     OW 5693   2.600   0.642   2.955
 1853SOL    HW1 5694   2.674   0.684   2.998
 1853SOL    HW2 5695   2.542   0.715   2.931
 1854SOL     OW 5696   3.602   1.037   3.683
 1854SOL    HW1 5697   3.566   1.046   3.771
 1854SOL    HW2 5698   3.556   0.962   3.646
 1855SOL     OW 5699   2.063   0.048   2.476
 1855SOL    HW1 5700   2.131   0.108   2.507
 1855SOL    HW2 5701   2.108  -0.010   2.415
 1856SOL     OW 5702   3.447   0.476   2.235
 1856SOL    HW1 5703   3.424   0.426   2.314
 1856SOL    HW2 5704   3.416   0.565   2.254
 1857SOL     OW 5705   2.895   0.729   2.787
 1857SOL    HW1 5706   2.890   0.744   2.882
 1857SOL    HW2 5707   2.837   0.794   2.749
 1858SOL     OW 5708   2.767   1.738   3.555
 1858SOL    HW1 5709   2.676   1.711   3.566
 1858SOL    HW2 5710   2.791   1.708   3.467
 1859SOL     OW 5711   3.676   1.443   3.443
 1859SOL    HW1 5712   3.763   1.440   3.482
 1859SOL    HW2 5713   3.648   1.352   3.437
 1860SOL     OW 5714   2.290   0.991   3.608
 1860SOL    HW1 5715   2.339   0.961   3.684
 1860SOL    HW2 5716   2.281   0.913   3.553
 1861SOL     OW 5717   3.389   0.363   1.996
 1861SOL    HW1 5718   3.419   0.390   2.083
 1861SOL    HW2 5719   3.348   0.278   2.010
 1862SOL     OW 5720   3.214   0.917   1.864
 1862SOL    HW1 5721   3.213   0.869   1.947
 1862SOL    HW2 5722   3.262   0.998   1.883
 1863SOL     OW 5723   2.220   0.800   2.831
 1863SOL    HW1 5724   2.177   0.884   2.812
 1863SOL    HW2 5725   2.311   0.824   2.850
 1864SOL     OW 5726   2.213   0.532   2.840
 1864SOL    HW1 5727   2.194   0.525   2.933
 1864SOL    HW2 5728   2.213   0.626   2.822
 1865SOL     OW 5729   3.002   0.397   3.513
 1865SOL    HW1 5730   3.091   0.413   3.542
 1865SOL    HW2 5731   3.007   0.316   3.463
 1866SOL     OW 5732   3.058   0.182   3.355
 1866SOL    HW1 5733   3.136   0.174   3.300
 1866SOL    HW2 5734   2.989   0.140   3.304
 1867SOL     OW 5735   1.893   1.356   1.987
 1867SOL    HW1 5736   1.799   1.354   1.969
 1867SOL    HW2 5737   1.914   1.449   1.991
 1868SOL     OW 5738   1.896   1.749   2.839
 1868SOL    HW1 5739   1.823   1.715   2.890
 1868SOL    HW2 5740   1.897   1.696   2.760
 1869SOL     OW 5741   2.335   1.609   2.701
 1869SOL    HW1 5742   2.262   1.637   2.646
 1869SOL    HW2 5743   2.367   1.528   2.661
 1870SOL     OW 5744   2.828   0.773   3.058
 1870SOL    HW1 5745   2.884   0.734   3.126
 1870SOL    HW2 5746   2.803   0.858   3.094
 1871SOL     OW 5747   1.929   0.707   2.877
 1871SOL    HW1 5748   2.003   0.680   2.931
 1871SOL    HW2 5749   1.967   0.734   2.794
 1872SOL     OW 5750   2.181   0.568   3.595
 1872SOL    HW1 5751   2.208   0.639   3.536
 1872SOL    HW2 5752   2.156   0.497   3.537
 1873SOL     OW 5753   3.119   1.002   3.467
 1873SOL    HW1 5754   3.035   1.029   3.505
 1873SOL    HW2 5755   3.146   1.076   3.413
 1874SOL     OW 5756   2.689   0.604   2.290
 1874SOL    HW1 5757   2.616   0.659   2.260
 1874SOL    HW2 5758   2.696   0.535   2.223
 1875SOL     OW 5759   3.582   0.645   2.989
 1875SOL    HW1 5760   3.559   0.716   3.048
 1875SOL    HW2 5761   3.507   0.638   2.929
 1876SOL     OW 5762   1.984   1.543   3.631
 1876SOL    HW1 5763   1.981   1.622   3.577
 1876SOL    HW2 5764   1.970   1.574   3.720
 1877SOL     OW 5765   2.481   0.443   3.113
 1877SOL    HW1 5766   2.541   0.454   3.187
 1877SOL    HW2 5767   2.509   0.509   3.050
 1878SOL     OW 5768   2.858   1.673   3.300
 1878SOL    HW1 5769   2.953   1.669   3.290
 1878SOL    HW2 5770   2.825   1.605   3.242
 1879SOL     OW 5771   2.346   0.543   2.054
 1879SOL    HW1 5772   2.365   0.460   2.098
 1879SOL    HW2 5773   2.401   0.607   2.098
 1880SOL     OW 5774   2.053   1.152   3.293
 1880SOL    HW1 5775   1.981   1.195   3.248
 1880SOL    HW2 5776   2.088   1.091   3.228
 1881SOL     OW 5777   3.203   1.114   3.016
 1881SOL    HW1 5778   3.227   1.195   2.972
 1881SOL    HW2 5779   3.261   1.048   2.977
 1882SOL     OW 5780   3.187   0.775   2.102
 1882SOL    HW1 5781   3.260   0.769   2.163
 1882SOL    HW2 5782   3.109   0.771   2.157
 1883SOL     OW 5783   3.690   1.782   3.037
 1883SOL    HW1 5784   3.725   1.735   3.112
 1883SOL    HW2 5785   3.684   1.873   3.067
 1884SOL     OW 5786   3.085   1.689   2.970
 1884SOL    HW1 5787   3.149   1.728   2.910
 1884SOL    HW2 5788   3.091   1.595   2.954
 1885SOL     OW 5789   1.883   1.222   2.846
 1885SOL    HW1 5790   1.831   1.154   2.802
 1885SOL    HW2 5791   1.971   1.212   2.808
 1886SOL     OW 5792   2.508   1.648   3.570
 1886SOL    HW1 5793   2.431   1.676   3.520
 1886SOL    HW2 5794   2.531   1.563   3.532
 1887SOL     OW 5795   3.647   0.033   2.361
 1887SOL    HW1 5796   3.664   0.122   2.329
 1887SOL    HW2 5797   3.675  -0.024   2.289
 1888SOL     OW 5798   3.266   1.488   2.344
 1888SOL    HW1 5799   3.306   1.560   2.295
 1888SOL    HW2 5800   3.250   1.525   2.431
 1889SOL     OW 5801   2.027   1.922   3.757
 1889SOL    HW1 5802   2.047   1.946   3.847
 1889SOL    HW2 5803   2.039   2.003   3.707
 1890SOL     OW 5804   3.190   0.973   2.542
 1890SOL    HW1 5805   3.222   1.035   2.608
 1890SOL    HW2 5806   3.217   1.011   2.459
 1891SOL     OW 5807   2.688   1.259   3.267
 1891SOL    HW1 5808   2.657   1.301   3.347
 1891SOL    HW2 5809   2.696   1.330   3.204
 1892SOL     OW 5810   2.473   1.572   1.961
 1892SOL    HW1 5811   2.418   1.496   1.977
 1892SOL    HW2 5812   2.561   1.535   1.947
 1893SOL     OW 5813   3.394   1.836   3.322
 1893SOL    HW1 5814   3.306   1.811   3.291
 1893SOL    HW2 5815   3.423   1.761   3.374
 1894SOL     OW 5816   3.589   0.217   2.744
 1894SOL    HW1 5817   3.596   0.302   2.699
 1894SOL    HW2 5818   3.612   0.236   2.834
 1895SOL     OW 5819   2.251   0.229   2.565
 1895SOL    HW1 5820   2.331   0.222   2.617
 1895SOL    HW2 5821   2.266   0.304   2.507
 1896SOL     OW 5822   3.074   1.569   1.899
 1896SOL    HW1 5823   3.074   1.474   1.910
 1896SOL    HW2 5824   3.004   1.585   1.836
 1897SOL     OW 5825   2.752   0.993   3.213
 1897SOL    HW1 5826   2.781   0.958   3.297
 1897SOL    HW2 5827   2.736   1.086   3.229
 1898SOL     OW 5828   2.846   0.916   2.102
 1898SOL    HW1 5829   2.781   0.966   2.151
 1898SOL    HW2 5830   2.878   0.851   2.164
 1899SOL     OW 5831   3.316   1.699   1.929
 1899SOL    HW1 5832   3.277   1.783   1.955
 1899SOL    HW2 5833   3.240   1.643   1.911
 1900SOL     OW 5834   2.220   1.366   3.344
 1900SOL    HW1 5835   2.289   1.331   3.401
 1900SOL    HW2 5836   2.162   1.291   3.328
 1901SOL     OW 5837   3.512   1.282   3.181
 1901SOL    HW1 5838   3.536   1.254   3.270
 1901SOL    HW2 5839   3.496   1.201   3.134
 1902SOL     OW 5840   2.924   1.069   2.561
 1902SOL    HW1 5841   2.934   1.158   2.594
 1902SOL    HW2 5842   3.014   1.038   2.547
 1903SOL     OW 5843   2.896   0.311   2.855
 1903SOL    HW1 5844   2.877   0.326   2.948
 1903SOL    HW2 5845   2.841   0.374   2.809
 1904SOL     OW 5846   2.399   1.465   2.328
 1904SOL    HW1 5847   2.418   1.438   2.417
 1904SOL    HW2 5848   2.469   1.427   2.275
 1905SOL     OW 5849   3.455   0.349   3.144
 1905SOL    HW1 5850   3.504   0.409   3.200
 1905SOL    HW2 5851   3.522   0.305   3.092
 1906SOL     OW 5852   2.105   1.300   2.155
 1906SOL    HW1 5853   2.098   1.368   2.222
 1906SOL    HW2 5854   2.031   1.316   2.097
 1907SOL     OW 5855   2.043   1.119   3.574
 1907SOL    HW1 5856   2.120   1.062   3.587
 1907SOL    HW2 5857   2.034   1.124   3.479
 1908SOL     OW 5858   2.643   0.123   3.381
 1908SOL    HW1 5859   2.626   0.201   3.434
 1908SOL    HW2 5860   2.576   0.060   3.408
 1909SOL     OW 5861   1.911   0.384   1.935
 1909SOL    HW1 5862   1.850   0.454   1.910
 1909SOL    HW2 5863   1.974   0.380   1.863
 1910SOL     OW 5864   3.270   0.851   3.290
 1910SOL    HW1 5865   3.219   0.900   3.355
 1910SOL    HW2 5866   3.242   0.760   3.301
 1911SOL     OW 5867   2.002   0.378   2.194
 1911SOL    HW1 5868   1.966   0.391   2.107
 1911SOL    HW2 5869   2.062   0.304   2.185
 1912SOL     OW 5870   3.070   1.303   1.966
 1912SOL    HW1 5871   3.059   1.306   2.061
 1912SOL    HW2 5872   3.027   1.222   1.940
 1913SOL     OW 5873   2.519   0.853   3.196
 1913SOL    HW1 5874   2.528   0.803   3.277
 1913SOL    HW2 5875   2.597   0.908   3.192
 1914SOL     OW 5876   3.298   1.748   2.803
 1914SOL    HW1 5877   3.334   1.834   2.782
 1914SOL    HW2 5878   3.364   1.706   2.857
 1915SOL     OW 5879   2.520   0.712   3.439
 1915SOL    HW1 5880   2.426   0.724   3.453
 1915SOL    HW2 5881   2.559   0.728   3.525
 1916SOL     OW 5882   3.220   1.293   3.561
 1916SOL    HW1 5883   3.144   1.347   3.582
 1916SOL    HW2 5884   3.212   1.275   3.467
 1917SOL     OW 5885   2.194   1.796   3.364
 1917SOL    HW1 5886   2.277   1.820   3.322
 1917SOL    HW2 5887   2.164   1.719   3.315
 1918SOL     OW 5888   3.496   0.861   3.147
 1918SOL    HW1 5889   3.557   0.884   3.216
 1918SOL    HW2 5890   3.411   0.855   3.191
 1919SOL     OW 5891   2.998   0.277   2.344
 1919SOL    HW1 5892   3.027   0.329   2.419
 1919SOL    HW2 5893   2.997   0.339   2.271
 1920SOL     OW 5894   2.505   0.768   2.580
 1920SOL    HW1 5895   2.598   0.780   2.598
 1920SOL    HW2 5896   2.485   0.679   2.609
 1921SOL     OW 5897   3.614   0.363   3.540
 1921SOL    HW1 5898   3.540   0.302   3.535
 1921SOL    HW2 5899   3.620   0.399   3.452
 1922SOL     OW 5900   3.618   0.910   3.385
 1922SOL    HW1 5901   3.549   0.882   3.445
 1922SOL    HW2 5902   3.691   0.850   3.402
 1923SOL     OW 5903   2.704   1.433   1.886
 1923SOL    HW1 5904   2.756   1.504   1.848
 1923SOL    HW2 5905   2.746   1.353   1.853
 1924SOL     OW 5906   2.488   1.834   2.753
 1924SOL    HW1 5907   2.579   1.810   2.737
 1924SOL    HW2 5908   2.439   1.753   2.741
 1925SOL     OW 5909   2.735   0.905   2.664
 1925SOL    HW1 5910   2.703   0.968   2.728
 1925SOL    HW2 5911   2.795   0.956   2.609
 1926SOL     OW 5912   2.969   1.057   1.905
 1926SOL    HW1 5913   2.930   1.010   1.979
 1926SOL    HW2 5914   3.043   1.002   1.879
 1927SOL     OW 5915   3.732   1.518   2.722
 1927SOL    HW1 5916   3.657   1.519   2.663
 1927SOL    HW2 5917   3.748   1.611   2.742
 1928SOL     OW 5918   2.160   1.341   3.687
 1928SOL    HW1 5919   2.105   1.416   3.663
 1928SOL    HW2 5920   2.108   1.264   3.660
 1929SOL     OW 5921   1.951   1.280   2.486
 1929SOL    HW1 5922   1.991   1.364   2.462
 1929SOL    HW2 5923   1.863   1.303   2.514
 1930SOL     OW 5924   2.594   1.398   3.493
 1930SOL    HW1 5925   2.651   1.390   3.570
 1930SOL    HW2 5926   2.518   1.343   3.514
 1931SOL     OW 5927   3.678   0.223   3.010
 1931SOL    HW1 5928   3.748   0.166   2.980
 1931SOL    HW2 5929   3.720   0.308   3.023
 1932SOL     OW 5930   2.309   0.453   2.416
 1932SOL    HW1 5931   2.389   0.478   2.462
 1932SOL    HW2 5932   2.340   0.411   2.336
 1933SOL     OW 5933   3.475   1.623   2.972
 1933SOL    HW1 5934   3.444   1.596   3.059
 1933SOL    HW2 5935   3.551   1.677   2.990
 1934SOL     OW 5936   2.113   0.623   3.091
 1934SOL    HW1 5937   2.154   0.709   3.103
 1934SOL    HW2 5938   2.155   0.568   3.157
 1935SOL     OW 5939   2.790   1.546   2.571
 1935SOL    HW1 5940   2.790   1.518   2.479
 1935SOL    HW2 5941   2.862   1.499   2.611
 1936SOL     OW 5942   3.254   0.033   2.902
 1936SOL    HW1 5943   3.336   0.031   2.951
 1936SOL    HW2 5944   3.189   0.066   2.965
 1937SOL     OW 5945   2.801   4.889   3.034
 1937SOL    HW1 5946   2.823   4.963   3.090
 1937SOL    HW2 5947   2.867   4.891   2.965
 1938SOL     OW 5948   2.613   1.346   2.167
 1938SOL    HW1 5949   2.682   1.377   2.225
 1938SOL    HW2 5950   2.640   1.374   2.080
 1939SOL     OW 5951   2.516   1.605   3.144
 1939SOL    HW1 5952   2.442   1.581   3.087
 1939SOL    HW2 5953   2.487   1.684   3.188
 1940SOL     OW 5954   3.219   0.138   1.985
 1940SOL    HW1 5955   3.178   0.196   1.920
 1940SOL    HW2 5956   3.257   0.067   1.934
 1941SOL     OW 5957   3.094   0.471   2.534
 1941SOL    HW1 5958   3.072   0.563   2.522
 1941SOL    HW2 5959   3.106   0.460   2.628
 1942SOL     OW 5960   3.317   0.212   2.702
 1942SOL    HW1 5961   3.412   0.208   2.711
 1942SOL    HW2 5962   3.285   0.138   2.754
 1943SOL     OW 5963   1.881   1.028   2.095
 1943SOL    HW1 5964   1.974   1.012   2.115
 1943SOL    HW2 5965   1.878   1.120   2.067
 1944SOL     OW 5966   2.048   0.582   3.834
 1944SOL    HW1 5967   2.089   0.653   3.885
 1944SOL    HW2 5968   2.084   0.593   3.745
 1945SOL     OW 5969   2.134   0.375   4.746
 1945SOL    HW1 5970   2.056   0.421   4.777
 1945SOL    HW2 5971   2.109   0.339   4.661
 1946SOL     OW 5972   1.937   0.405   4.295
 1946SOL    HW1 5973   1.845   0.416   4.317
 1946SOL    HW2 5974   1.938   0.342   4.223
 1947SOL     OW 5975   2.415   1.329   4.920
 1947SOL    HW1 5976   2.425   1.380   5.000
 1947SOL    HW2 5977   2.343   1.370   4.873
 1948SOL     OW 5978   3.552   1.524   4.483
 1948SOL    HW1 5979   3.648   1.528   4.491
 1948SOL    HW2 5980   3.520   1.532   4.573
 1949SOL     OW 5981   2.981   0.679   4.352
 1949SOL    HW1 5982   3.037   0.611   4.388
 1949SOL    HW2 5983   3.009   0.760   4.395
 1950SOL     OW 5984   3.664   0.528   3.923
 1950SOL    HW1 5985   3.658   0.606   3.978
 1950SOL    HW2 5986   3.604   0.466   3.964
 1951SOL     OW 5987   2.561   1.238   4.701
 1951SOL    HW1 5988   2.511   1.256   4.781
 1951SOL    HW2 5989   2.604   1.321   4.681
 1952SOL     OW 5990   2.581   1.001   4.322
 1952SOL    HW1 5991   2.645   1.007   4.393
 1952SOL    HW2 5992   2.565   0.907   4.312
 1953SOL     OW 5993   2.212   1.471   4.805
 1953SOL    HW1 5994   2.164   1.540   4.851
 1953SOL    HW2 5995   2.143   1.416   4.767
 1954SOL     OW 5996   3.480   0.340   4.395
 1954SOL    HW1 5997   3.567   0.348   4.355
 1954SOL    HW2 5998   3.447   0.430   4.397
 1955SOL     OW 5999   2.067   1.754   4.189
 1955SOL    HW1 6000   2.129   1.765   4.117
 1955SOL    HW2 6001   1.981   1.764   4.148
 1956SOL     OW 6002   1.987   1.495   4.262
 1956SOL    HW1 6003   2.026   1.582   4.260
 1956SOL    HW2 6004   1.985   1.467   4.171
 1957SOL     OW 6005   2.168   1.095   4.586
 1957SOL    HW1 6006   2.120   1.170   4.623
 1957SOL    HW2 6007   2.245   1.133   4.545
 1958SOL     OW 6008   2.470   0.948   3.829
 1958SOL    HW1 6009   2.519   0.981   3.904
 1958SOL    HW2 6010   2.466   0.853   3.842
 1959SOL     OW 6011   2.079   0.632   4.232
 1959SOL    HW1 6012   2.011   0.699   4.240
 1959SOL    HW2 6013   2.034   0.550   4.254
 1960SOL     OW 6014   3.698   1.803   4.140
 1960SOL    HW1 6015   3.774   1.756   4.174
 1960SOL    HW2 6016   3.624   1.769   4.192
 1961SOL     OW 6017   1.960   1.670   3.868
 1961SOL    HW1 6018   1.899   1.696   3.937
 1961SOL    HW2 6019   1.992   1.752   3.831
 1962SOL     OW 6020   3.522   0.875   4.294
 1962SOL    HW1 6021   3.608   0.868   4.334
 1962SOL    HW2 6022   3.463   0.827   4.352
 1963SOL     OW 6023   3.505   1.127   4.178
 1963SOL    HW1 6024   3.523   1.043   4.220
 1963SOL    HW2 6025   3.410   1.138   4.185
 1964SOL     OW 6026   2.474   1.438   4.427
 1964SOL    HW1 6027   2.450   1.345   4.433
 1964SOL    HW2 6028   2.469   1.458   4.334
 1965SOL     OW 6029   2.668   4.875   4.258
 1965SOL    HW1 6030   2.618   4.955   4.273
 1965SOL    HW2 6031   2.739   4.879   4.323
 1966SOL     OW 6032   2.183   0.996   0.064
 1966SOL    HW1 6033   2.214   0.944   0.138
 1966SOL    HW2 6034   2.176   0.933  -0.008
 1967SOL     OW 6035   3.447   1.032   3.921
 1967SOL    HW1 6036   3.477   1.071   4.004
 1967SOL    HW2 6037   3.394   1.101   3.881
 1968SOL     OW 6038   3.296   1.553   4.710
 1968SOL    HW1 6039   3.379   1.517   4.739
 1968SOL    HW2 6040   3.231   1.516   4.770
 1969SOL     OW 6041   3.485   1.698   4.278
 1969SOL    HW1 6042   3.512   1.641   4.350
 1969SOL    HW2 6043   3.403   1.660   4.247
 1970SOL     OW 6044   2.422   0.679   3.881
 1970SOL    HW1 6045   2.346   0.707   3.931
 1970SOL    HW2 6046   2.396   0.595   3.843
 1971SOL     OW 6047   3.112   0.266   4.635
 1971SOL    HW1 6048   3.033   0.277   4.688
 1971SOL    HW2 6049   3.180   0.243   4.699
 1972SOL     OW 6050   3.398   1.728   3.973
 1972SOL    HW1 6051   3.479   1.748   4.019
 1972SOL    HW2 6052   3.345   1.681   4.038
 1973SOL     OW 6053   2.991   0.761   4.090
 1973SOL    HW1 6054   2.980   0.737   4.182
 1973SOL    HW2 6055   3.068   0.817   4.088
 1974SOL     OW 6056   2.006   0.898   4.483
 1974SOL    HW1 6057   2.068   0.966   4.510
 1974SOL    HW2 6058   2.029   0.822   4.538
 1975SOL     OW 6059   2.634   0.312   3.801
 1975SOL    HW1 6060   2.609   0.230   3.843
 1975SOL    HW2 6061   2.631   0.377   3.872
 1976SOL     OW 6062   3.236   1.119   4.212
 1976SOL    HW1 6063   3.221   1.111   4.306
 1976SOL    HW2 6064   3.219   1.032   4.177
 1977SOL     OW 6065   2.360   0.224   4.456
 1977SOL    HW1 6066   2.415   0.296   4.486
 1977SOL    HW2 6067   2.270   0.252   4.475
 1978SOL     OW 6068   2.873   1.360   4.228
 1978SOL    HW1 6069   2.967   1.376   4.215
 1978SOL    HW2 6070   2.841   1.441   4.269
 1979SOL     OW 6071   2.162   1.791   4.653
 1979SOL    HW1 6072   2.232   1.728   4.637
 1979SOL    HW2 6073   2.176   1.860   4.588
 1980SOL     OW 6074   3.717   0.967   4.621
 1980SOL    HW1 6075   3.802   1.011   4.630
 1980SOL    HW2 6076   3.725   0.916   4.540
 1981SOL     OW 6077   2.235   1.013   4.021
 1981SOL    HW1 6078   2.255   1.060   4.102
 1981SOL    HW2 6079   2.303   1.039   3.960
 1982SOL     OW 6080   3.374   0.598   4.427
 1982SOL    HW1 6081   3.406   0.603   4.517
 1982SOL    HW2 6082   3.285   0.563   4.435
 1983SOL     OW 6083   2.889   1.695   3.958
 1983SOL    HW1 6084   2.957   1.722   4.020
 1983SOL    HW2 6085   2.931   1.702   3.873
 1984SOL     OW 6086   3.553   1.384   3.830
 1984SOL    HW1 6087   3.611   1.331   3.885
 1984SOL    HW2 6088   3.472   1.333   3.825
 1985SOL     OW 6089   2.260   1.791   3.985
 1985SOL    HW1 6090   2.305   1.713   3.953
 1985SOL    HW2 6091   2.281   1.859   3.922
 1986SOL     OW 6092   3.289   0.174   4.079
 1986SOL    HW1 6093   3.340   0.120   4.139
 1986SOL    HW2 6094   3.248   0.111   4.019
 1987SOL     OW 6095   2.095   1.716   4.919
 1987SOL    HW1 6096   2.064   1.793   4.966
 1987SOL    HW2 6097   2.118   1.748   4.832
 1988SOL     OW 6098   2.754   1.732   4.670
 1988SOL    HW1 6099   2.673   1.769   4.635
 1988SOL    HW2 6100   2.741   1.637   4.666
 1989SOL     OW 6101   2.189   0.745   4.004
 1989SOL    HW1 6102   2.197   0.840   4.016
 1989SOL    HW2 6103   2.158   0.713   4.088
 1990SOL     OW 6104   2.341   0.025   3.754
 1990SOL    HW1 6105   2.406   0.040   3.823
 1990SOL    HW2 6106   2.265  -0.009   3.801
 1991SOL     OW 6107   2.685   1.467   4.613
 1991SOL    HW1 6108   2.770   1.431   4.585
 1991SOL    HW2 6109   2.632   1.468   4.534
 1992SOL     OW 6110   2.804   0.536   4.650
 1992SOL    HW1 6111   2.867   0.607   4.664
 1992SOL    HW2 6112   2.782   0.541   4.557
 1993SOL     OW 6113   2.453   0.134   4.203
 1993SOL    HW1 6114   2.430   0.150   4.294
 1993SOL    HW2 6115   2.443   0.219   4.160
 1994SOL     OW 6116   3.312   1.240   3.811
 1994SOL    HW1 6117   3.227   1.255   3.853
 1994SOL    HW2 6118   3.295   1.253   3.718
 1995SOL     OW 6119   2.091   4.971   3.851
 1995SOL    HW1 6120   2.028   4.984   3.922
 1995SOL    HW2 6121   2.041   4.927   3.782
 1996SOL     OW 6122   2.848   0.316   4.303
 1996SOL    HW1 6123   2.929   0.318   4.253
 1996SOL    HW2 6124   2.859   0.244   4.365
 1997SOL     OW 6125   3.113   1.556   4.495
 1997SOL    HW1 6126   3.182   1.557   4.561
 1997SOL    HW2 6127   3.123   1.639   4.448
 1998SOL     OW 6128   2.417   1.168   4.473
 1998SOL    HW1 6129   2.464   1.180   4.555
 1998SOL    HW2 6130   2.472   1.109   4.422
 1999SOL     OW 6131   3.112   1.789   4.348
 1999SOL    HW1 6132   3.058   1.835   4.411
 1999SOL    HW2 6133   3.129   1.853   4.280
 2000SOL     OW 6134   2.802   0.499   3.673
 2000SOL    HW1 6135   2.759   0.426   3.718
 2000SOL    HW2 6136   2.876   0.459   3.628
 2001SOL     OW 6137   2.740   0.549   4.380
 2001SOL    HW1 6138   2.815   0.605   4.363
 2001SOL    HW2 6139   2.766   0.463   4.346
 2002SOL     OW 6140   2.900   0.125   4.492
 2002SOL    HW1 6141   2.990   0.134   4.523
 2002SOL    HW2 6142   2.887   0.030   4.485
 2003SOL     OW 6143   3.246   1.121   4.490
 2003SOL    HW1 6144   3.201   1.168   4.560
 2003SOL    HW2 6145   3.331   1.164   4.482
 2004SOL     OW 6146   3.448   0.550   4.691
 2004SOL    HW1 6147   3.506   0.578   4.762
 2004SOL    HW2 6148   3.461   0.456   4.686
 2005SOL     OW 6149   3.644   0.745   4.077
 2005SOL    HW1 6150   3.586   0.781   4.144
 2005SOL    HW2 6151   3.694   0.820   4.045
 2006SOL     OW 6152   2.276   1.416   3.925
 2006SOL    HW1 6153   2.242   1.377   3.844
 2006SOL    HW2 6154   2.334   1.486   3.896
 2007SOL     OW 6155   3.480   1.260   4.431
 2007SOL    HW1 6156   3.492   1.355   4.440
 2007SOL    HW2 6157   3.496   1.242   4.338
 2008SOL     OW 6158   3.235   0.590   3.740
 2008SOL    HW1 6159   3.217   0.684   3.730
 2008SOL    HW2 6160   3.198   0.568   3.825
 2009SOL     OW 6161   2.421   0.382   4.092
 2009SOL    HW1 6162   2.503   0.426   4.069
 2009SOL    HW2 6163   2.366   0.391   4.014
 2010SOL     OW 6164   3.125   1.243   4.708
 2010SOL    HW1 6165   3.118   1.319   4.765
 2010SOL    HW2 6166   3.153   1.172   4.766
 2011SOL     OW 6167   3.557   1.020   4.832
 2011SOL    HW1 6168   3.465   1.019   4.804
 2011SOL    HW2 6169   3.606   0.996   4.753
 2012SOL     OW 6170   2.626   1.034   4.041
 2012SOL    HW1 6171   2.609   1.031   4.135
 2012SOL    HW2 6172   2.691   0.967   4.025
 2013SOL     OW 6173   2.249   0.725   4.979
 2013SOL    HW1 6174   2.337   0.761   4.967
 2013SOL    HW2 6175   2.221   0.701   4.891
 2014SOL     OW 6176   2.251   1.146   4.251
 2014SOL    HW1 6177   2.314   1.160   4.322
 2014SOL    HW2 6178   2.168   1.181   4.286
 2015SOL     OW 6179   2.491   0.471   4.505
 2015SOL    HW1 6180   2.578   0.489   4.469
 2015SOL    HW2 6181   2.430   0.507   4.441
 2016SOL     OW 6182   3.139   1.365   4.136
 2016SOL    HW1 6183   3.176   1.284   4.171
 2016SOL    HW2 6184   3.110   1.342   4.047
 2017SOL     OW 6185   3.112   1.452   4.894
 2017SOL    HW1 6186   3.102   1.406   4.978
 2017SOL    HW2 6187   3.081   1.541   4.911
 2018SOL     OW 6188   3.353   0.620   4.151
 2018SOL    HW1 6189   3.364   0.618   4.246
 2018SOL    HW2 6190   3.411   0.551   4.118
 2019SOL     OW 6191   2.494   0.813   4.896
 2019SOL    HW1 6192   2.445   0.856   4.826
 2019SOL    HW2 6193   2.531   0.735   4.854
 2020SOL     OW 6194   3.209   0.670   4.769
 2020SOL    HW1 6195   3.289   0.626   4.740
 2020SOL    HW2 6196   3.230   0.703   4.856
 2021SOL     OW 6197   3.137   0.549   3.999
 2021SOL    HW1 6198   3.214   0.575   4.048
 2021SOL    HW2 6199   3.072   0.617   4.017
 2022SOL     OW 6200   2.213   0.188   4.936
 2022SOL    HW1 6201   2.306   0.168   4.927
 2022SOL    HW2 6202   2.198   0.260   4.875
 2023SOL     OW 6203   1.814   1.262   4.877
 2023SOL    HW1 6204   1.818   1.282   4.970
 2023SOL    HW2 6205   1.778   1.341   4.836
 2024SOL     OW 6206   2.554   0.569   4.767
 2024SOL    HW1 6207   2.512   0.534   4.688
 2024SOL    HW2 6208   2.648   0.561   4.748
 2025SOL     OW 6209   2.041   0.067   4.309
 2025SOL    HW1 6210   2.017   0.120   4.233
 2025SOL    HW2 6211   2.113   0.012   4.278
 2026SOL     OW 6212   3.489   0.381   4.082
 2026SOL    HW1 6213   3.558   0.352   4.142
 2026SOL    HW2 6214   3.421   0.314   4.090
 2027SOL     OW 6215   2.975   0.752   4.667
 2027SOL    HW1 6216   3.058   0.721   4.702
 2027SOL    HW2 6217   3.000   0.817   4.601
 2028SOL     OW 6218   3.422   0.159   3.813
 2028SOL    HW1 6219   3.406   0.228   3.878
 2028SOL    HW2 6220   3.350   0.097   3.826
 2029SOL     OW 6221   3.197   0.857   3.688
 2029SOL    HW1 6222   3.141   0.901   3.751
 2029SOL    HW2 6223   3.179   0.901   3.605
 2030SOL     OW 6224   2.928   1.365   4.554
 2030SOL    HW1 6225   2.985   1.305   4.601
 2030SOL    HW2 6226   2.987   1.433   4.522
 2031SOL     OW 6227   2.309   0.896   4.716
 2031SOL    HW1 6228   2.261   0.968   4.675
 2031SOL    HW2 6229   2.254   0.819   4.701
 2032SOL     OW 6230   2.156   0.668   4.713
 2032SOL    HW1 6231   2.199   0.584   4.694
 2032SOL    HW2 6232   2.071   0.643   4.749
 2033SOL     OW 6233   3.005   0.198   0.291
 2033SOL    HW1 6234   2.966   0.194   0.378
 2033SOL    HW2 6235   3.017   0.292   0.275
 2034SOL     OW 6236   1.814   1.232   3.965
 2034SOL    HW1 6237   1.873   1.307   3.972
 2034SOL    HW2 6238   1.860   1.161   4.010
 2035SOL     OW 6239   1.902   1.725   4.609
 2035SOL    HW1 6240   1.858   1.744   4.692
 2035SOL    HW2 6241   1.994   1.746   4.626
 2036SOL     OW 6242   2.359   1.606   4.611
 2036SOL    HW1 6243   2.322   1.548   4.678
 2036SOL    HW2 6244   2.397   1.547   4.546
 2037SOL     OW 6245   2.832   0.803   4.894
 2037SOL    HW1 6246   2.877   0.789   4.810
 2037SOL    HW2 6247   2.830   0.717   4.935
 2038SOL     OW 6248   1.940   0.560   4.837
 2038SOL    HW1 6249   1.962   0.587   4.926
 2038SOL    HW2 6250   1.844   0.555   4.837
 2039SOL     OW 6251   2.629   0.524   3.983
 2039SOL    HW1 6252   2.710   0.568   4.009
 2039SOL    HW2 6253   2.573   0.594   3.950
 2040SOL     OW 6254   3.601   0.602   4.913
 2040SOL    HW1 6255   3.589   0.689   4.952
 2040SOL    HW2 6256   3.590   0.541   4.986
 2041SOL     OW 6257   2.515   0.420   4.998
 2041SOL    HW1 6258   2.457   0.468   5.057
 2041SOL    HW2 6259   2.525   0.478   4.923
 2042SOL     OW 6260   2.285   0.431   3.862
 2042SOL    HW1 6261   2.202   0.479   3.868
 2042SOL    HW2 6262   2.271   0.367   3.793
 2043SOL     OW 6263   2.034   1.150   0.230
 2043SOL    HW1 6264   2.083   1.231   0.242
 2043SOL    HW2 6265   2.083   1.101   0.164
 2044SOL     OW 6266   3.212   1.065   4.892
 2044SOL    HW1 6267   3.255   1.119   4.960
 2044SOL    HW2 6268   3.148   1.014   4.940
 2045SOL     OW 6269   3.252   0.870   4.076
 2045SOL    HW1 6270   3.296   0.790   4.103
 2045SOL    HW2 6271   3.309   0.907   4.009
 2046SOL     OW 6272   3.693   1.701   4.836
 2046SOL    HW1 6273   3.655   1.738   4.916
 2046SOL    HW2 6274   3.642   1.622   4.820
 2047SOL     OW 6275   2.018   1.312   4.689
 2047SOL    HW1 6276   1.955   1.281   4.754
 2047SOL    HW2 6277   1.966   1.364   4.627
 2048SOL     OW 6278   3.479   0.096   4.266
 2048SOL    HW1 6279   3.458   0.174   4.317
 2048SOL    HW2 6280   3.559   0.061   4.307
 2049SOL     OW 6281   3.248   1.612   4.175
 2049SOL    HW1 6282   3.189   1.659   4.234
 2049SOL    HW2 6283   3.210   1.525   4.165
 2050SOL     OW 6284   3.055   0.920   4.461
 2050SOL    HW1 6285   3.131   0.974   4.481
 2050SOL    HW2 6286   2.994   0.981   4.420
 2051SOL     OW 6287   2.440   1.617   3.850
 2051SOL    HW1 6288   2.514   1.637   3.908
 2051SOL    HW2 6289   2.471   1.639   3.762
 2052SOL     OW 6290   3.579   1.785   0.071
 2052SOL    HW1 6291   3.580   1.750   0.160
 2052SOL    HW2 6292   3.487   1.778   0.044
 2053SOL     OW 6293   3.752   0.182   4.685
 2053SOL    HW1 6294   3.753   0.220   4.772
 2053SOL    HW2 6295   3.810   0.239   4.633
 2054SOL     OW 6296   2.072   0.266   4.495
 2054SOL    HW1 6297   2.032   0.332   4.438
 2054SOL    HW2 6298   2.066   0.184   4.446
 2055SOL     OW 6299   2.996   1.714   3.698
 2055SOL    HW1 6300   3.051   1.756   3.632
 2055SOL    HW2 6301   2.907   1.722   3.664
 2056SOL     OW 6302   2.699   1.005   0.024
 2056SOL    HW1 6303   2.726   0.933  -0.032
 2056SOL    HW2 6304   2.604   1.002   0.024
 2057SOL     OW 6305   2.805   0.851   3.912
 2057SOL    HW1 6306   2.859   0.806   3.977
 2057SOL    HW2 6307   2.866   0.912   3.869
 2058SOL     OW 6308   3.455   1.616   3.727
 2058SOL    HW1 6309   3.430   1.661   3.808
 2058SOL    HW2 6310   3.492   1.533   3.756
 2059SOL     OW 6311   2.891   1.111   4.359
 2059SOL    HW1 6312   2.830   1.114   4.432
 2059SOL    HW2 6313   2.884   1.197   4.317
 2060SOL     OW 6314   2.845   0.273   4.725
 2060SOL    HW1 6315   2.823   0.365   4.709
 2060SOL    HW2 6316   2.838   0.231   4.640
 2061SOL     OW 6317   2.450   1.469   4.158
 2061SOL    HW1 6318   2.512   1.523   4.111
 2061SOL    HW2 6319   2.390   1.437   4.091
 2062SOL     OW 6320   3.587   0.427   0.127
 2062SOL    HW1 6321   3.626   0.366   0.189
 2062SOL    HW2 6322   3.499   0.394   0.112
 2063SOL     OW 6323   2.008   1.430   3.996
 2063SOL    HW1 6324   2.102   1.415   3.986
 2063SOL    HW2 6325   1.991   1.511   3.948
 2064SOL     OW 6326   1.955   0.326   3.835
 2064SOL    HW1 6327   1.978   0.419   3.837
 2064SOL    HW2 6328   1.884   0.320   3.772
 2065SOL     OW 6329   1.950   0.220   4.091
 2065SOL    HW1 6330   1.910   0.136   4.071
 2065SOL    HW2 6331   1.959   0.264   4.007
 2066SOL     OW 6332   3.041   1.281   3.890
 2066SOL    HW1 6333   2.952   1.277   3.925
 2066SOL    HW2 6334   3.033   1.337   3.812
 2067SOL     OW 6335   3.291   1.831   4.716
 2067SOL    HW1 6336   3.354   1.854   4.647
 2067SOL    HW2 6337   3.288   1.735   4.714
 2068SOL     OW 6338   3.577   0.844   0.044
 2068SOL    HW1 6339   3.592   0.901  -0.031
 2068SOL    HW2 6340   3.513   0.892   0.098
 2069SOL     OW 6341   3.098   0.343   4.184
 2069SOL    HW1 6342   3.160   0.276   4.153
 2069SOL    HW2 6343   3.097   0.409   4.114
 2070SOL     OW 6344   2.551   0.734   4.293
 2070SOL    HW1 6345   2.618   0.671   4.321
 2070SOL    HW2 6346   2.470   0.683   4.290
 2071SOL     OW 6347   3.711   1.026   0.370
 2071SOL    HW1 6348   3.618   1.015   0.390
 2071SOL    HW2 6349   3.713   1.083   0.293
 2072SOL     OW 6350   2.741   1.346   3.724
 2072SOL    HW1 6351   2.749   1.350   3.820
 2072SOL    HW2 6352   2.704   1.260   3.706
 2073SOL     OW 6353   2.522   1.818   4.556
 2073SOL    HW1 6354   2.476   1.896   4.589
 2073SOL    HW2 6355   2.463   1.745   4.576
 2074SOL     OW 6356   2.712   1.051   4.567
 2074SOL    HW1 6357   2.746   0.988   4.631
 2074SOL    HW2 6358   2.665   1.115   4.620
 2075SOL     OW 6359   3.000   1.016   3.807
 2075SOL    HW1 6360   3.026   1.100   3.845
 2075SOL    HW2 6361   2.958   1.039   3.724
 2076SOL     OW 6362   3.821   1.541   4.533
 2076SOL    HW1 6363   3.837   1.626   4.574
 2076SOL    HW2 6364   3.855   1.478   4.596
 2077SOL     OW 6365   2.002   1.226   4.328
 2077SOL    HW1 6366   1.946   1.206   4.402
 2077SOL    HW2 6367   1.995   1.321   4.318
 2078SOL     OW 6368   3.713   0.239   4.953
 2078SOL    HW1 6369   3.679   0.313   5.003
 2078SOL    HW2 6370   3.669   0.163   4.990
 2079SOL     OW 6371   2.339   0.555   4.294
 2079SOL    HW1 6372   2.250   0.585   4.277
 2079SOL    HW2 6373   2.356   0.490   4.226
 2080SOL     OW 6374   3.542   1.468   4.810
 2080SOL    HW1 6375   3.598   1.392   4.821
 2080SOL    HW2 6376   3.493   1.474   4.892
 2081SOL     OW 6377   2.809   1.607   4.333
 2081SOL    HW1 6378   2.874   1.647   4.390
 2081SOL    HW2 6379   2.742   1.674   4.322
 2082SOL     OW 6380   3.299   0.211   4.835
 2082SOL    HW1 6381   3.314   0.255   4.919
 2082SOL    HW2 6382   3.373   0.239   4.781
 2083SOL     OW 6383   2.754   0.089   4.912
 2083SOL    HW1 6384   2.723   0.019   4.854
 2083SOL    HW2 6385   2.792   0.154   4.853
 2084SOL     OW 6386   2.783   1.266   3.988
 2084SOL    HW1 6387   2.801   1.304   4.074
 2084SOL    HW2 6388   2.721   1.195   4.005
 2085SOL     OW 6389   3.193   5.017   3.857
 2085SOL    HW1 6390   3.154   5.053   3.777
 2085SOL    HW2 6391   3.165   4.925   3.858
 2086SOL     OW 6392   3.136   0.463   4.433
 2086SOL    HW1 6393   3.129   0.399   4.504
 2086SOL    HW2 6394   3.123   0.413   4.353
 2087SOL     OW 6395   3.496   0.279   4.661
 2087SOL    HW1 6396   3.579   0.233   4.669
 2087SOL    HW2 6397   3.481   0.285   4.566
 2088SOL     OW 6398   1.976   1.064   4.107
 2088SOL    HW1 6399   1.991   1.124   4.181
 2088SOL    HW2 6400   2.062   1.051   4.068
 2089SOL     OW 6401   2.630   1.658   4.044
 2089SOL    HW1 6402   2.630   1.706   4.127
 2089SOL    HW2 6403   2.720   1.664   4.012
 2090SOL     OW 6404   1.981   2.390   0.044
 2090SOL    HW1 6405   1.954   2.417   0.132
 2090SOL    HW2 6406   2.074   2.368   0.053
 2091SOL     OW 6407   2.163   2.149   0.871
 2091SOL    HW1 6408   2.181   2.225   0.926
 2091SOL    HW2 6409   2.239   2.093   0.881
 2092SOL     OW 6410   1.762   2.174   0.728
 2092SOL    HW1 6411   1.813   2.251   0.701
 2092SOL    HW2 6412   1.673   2.206   0.737
 2093SOL     OW 6413   2.449   3.122   1.224
 2093SOL    HW1 6414   2.500   3.123   1.305
 2093SOL    HW2 6415   2.502   3.071   1.163
 2094SOL     OW 6416   3.479   3.501   0.767
 2094SOL    HW1 6417   3.441   3.536   0.847
 2094SOL    HW2 6418   3.551   3.445   0.797
 2095SOL     OW 6419   3.007   2.600   0.661
 2095SOL    HW1 6420   2.968   2.639   0.739
 2095SOL    HW2 6421   3.046   2.674   0.615
 2096SOL     OW 6422   3.709   2.500   0.301
 2096SOL    HW1 6423   3.732   2.482   0.392
 2096SOL    HW2 6424   3.687   2.414   0.265
 2097SOL     OW 6425   2.592   3.002   1.030
 2097SOL    HW1 6426   2.612   3.074   0.971
 2097SOL    HW2 6427   2.649   2.930   1.001
 2098SOL     OW 6428   2.589   2.815   0.646
 2098SOL    HW1 6429   2.560   2.728   0.620
 2098SOL    HW2 6430   2.508   2.862   0.667
 2099SOL     OW 6431   2.637   3.104   1.789
 2099SOL    HW1 6432   2.660   3.157   1.865
 2099SOL    HW2 6433   2.585   3.163   1.734
 2100SOL     OW 6434   2.206   3.166   1.114
 2100SOL    HW1 6435   2.286   3.137   1.159
 2100SOL    HW2 6436   2.235   3.240   1.060
 2101SOL     OW 6437   3.214   3.516   1.325
 2101SOL    HW1 6438   3.152   3.544   1.393
 2101SOL    HW2 6439   3.187   3.564   1.247
 2102SOL     OW 6440   2.349   2.230   1.440
 2102SOL    HW1 6441   2.275   2.180   1.474
 2102SOL    HW2 6442   2.426   2.184   1.474
 2103SOL     OW 6443   3.405   2.294   0.807
 2103SOL    HW1 6444   3.483   2.296   0.751
 2103SOL    HW2 6445   3.371   2.205   0.798
 2104SOL     OW 6446   2.153   3.590   0.512
 2104SOL    HW1 6447   2.223   3.575   0.448
 2104SOL    HW2 6448   2.141   3.505   0.554
 2105SOL     OW 6449   3.032   3.197   1.679
 2105SOL    HW1 6450   3.113   3.229   1.718
 2105SOL    HW2 6451   3.058   3.163   1.594
 2106SOL     OW 6452   2.185   3.328   0.605
 2106SOL    HW1 6453   2.268   3.309   0.649
 2106SOL    HW2 6454   2.197   3.292   0.517
 2107SOL     OW 6455   2.187   2.964   0.917
 2107SOL    HW1 6456   2.198   3.012   0.999
 2107SOL    HW2 6457   2.136   3.023   0.861
 2108SOL     OW 6458   2.563   3.509   1.393
 2108SOL    HW1 6459   2.489   3.558   1.429
 2108SOL    HW2 6460   2.529   3.468   1.313
 2109SOL     OW 6461   2.411   2.824   0.222
 2109SOL    HW1 6462   2.490   2.856   0.266
 2109SOL    HW2 6463   2.431   2.735   0.197
 2110SOL     OW 6464   3.440   2.022   1.408
 2110SOL    HW1 6465   3.468   1.931   1.410
 2110SOL    HW2 6466   3.402   2.038   1.494
 2111SOL     OW 6467   1.888   2.408   0.658
 2111SOL    HW1 6468   1.905   2.466   0.732
 2111SOL    HW2 6469   1.961   2.425   0.598
 2112SOL     OW 6470   3.831   3.696   0.339
 2112SOL    HW1 6471   3.874   3.648   0.410
 2112SOL    HW2 6472   3.753   3.645   0.319
 2113SOL     OW 6473   1.912   3.526   0.151
 2113SOL    HW1 6474   1.919   3.581   0.230
 2113SOL    HW2 6475   1.978   3.561   0.092
 2114SOL     OW 6476   3.616   2.684   0.653
 2114SOL    HW1 6477   3.543   2.712   0.708
 2114SOL    HW2 6478   3.575   2.630   0.585
 2115SOL     OW 6479   3.554   3.014   0.446
 2115SOL    HW1 6480   3.605   3.077   0.395
 2115SOL    HW2 6481   3.581   2.929   0.413
 2116SOL     OW 6482   1.899   2.588   1.541
 2116SOL    HW1 6483   1.966   2.535   1.585
 2116SOL    HW2 6484   1.819   2.572   1.591
 2117SOL     OW 6485   2.430   3.283   0.745
 2117SOL    HW1 6486   2.509   3.251   0.789
 2117SOL    HW2 6487   2.461   3.310   0.659
 2118SOL     OW 6488   3.130   3.077   1.457
 2118SOL    HW1 6489   3.213   3.090   1.504
 2118SOL    HW2 6490   3.155   3.030   1.378
 2119SOL     OW 6491   2.669   1.904   0.591
 2119SOL    HW1 6492   2.576   1.919   0.611
 2119SOL    HW2 6493   2.698   1.986   0.549
 2120SOL     OW 6494   1.987   2.786   1.213
 2120SOL    HW1 6495   1.998   2.849   1.284
 2120SOL    HW2 6496   2.075   2.750   1.199
 2121SOL     OW 6497   3.440   2.853   0.137
 2121SOL    HW1 6498   3.415   2.945   0.125
 2121SOL    HW2 6499   3.458   2.822   0.048
 2122SOL     OW 6500   3.043   3.737   1.746
 2122SOL    HW1 6501   3.103   3.690   1.804
 2122SOL    HW2 6502   2.982   3.782   1.805
 2123SOL     OW 6503   2.196   2.123   1.795
 2123SOL    HW1 6504   2.261   2.053   1.803
 2123SOL    HW2 6505   2.239   2.200   1.833
 2124SOL     OW 6506   3.329   3.226   1.030
 2124SOL    HW1 6507   3.421   3.234   1.055
 2124SOL    HW2 6508   3.331   3.178   0.947
 2125SOL     OW 6509   3.580   3.695   0.588
 2125SOL    HW1 6510   3.544   3.637   0.656
 2125SOL    HW2 6511   3.579   3.643   0.508
 2126SOL     OW 6512   2.392   2.542   0.191
 2126SOL    HW1 6513   2.337   2.557   0.268
 2126SOL    HW2 6514   2.468   2.493   0.224
 2127SOL     OW 6515   3.119   2.224   0.932
 2127SOL    HW1 6516   3.112   2.284   0.857
 2127SOL    HW2 6517   3.176   2.154   0.901
 2128SOL     OW 6518   2.690   2.504   1.497
 2128SOL    HW1 6519   2.775   2.465   1.478
 2128SOL    HW2 6520   2.710   2.592   1.530
 2129SOL     OW 6521   3.254   2.334   1.653
 2129SOL    HW1 6522   3.282   2.407   1.708
 2129SOL    HW2 6523   3.161   2.323   1.674
 2130SOL     OW 6524   2.803   2.741   1.586
 2130SOL    HW1 6525   2.896   2.715   1.583
 2130SOL    HW2 6526   2.803   2.823   1.635
 2131SOL     OW 6527   2.814   2.258   1.225
 2131SOL    HW1 6528   2.721   2.267   1.246
 2131SOL    HW2 6529   2.825   2.166   1.202
 2132SOL     OW 6530   2.826   2.538   0.374
 2132SOL    HW1 6531   2.853   2.630   0.384
 2132SOL    HW2 6532   2.901   2.497   0.330
 2133SOL     OW 6533   1.920   2.583   0.866
 2133SOL    HW1 6534   2.012   2.609   0.879
 2133SOL    HW2 6535   1.872   2.666   0.862
 2134SOL     OW 6536   1.936   3.659   1.592
 2134SOL    HW1 6537   2.010   3.604   1.567
 2134SOL    HW2 6538   1.951   3.742   1.547
 2135SOL     OW 6539   2.683   2.243   0.095
 2135SOL    HW1 6540   2.651   2.278   0.179
 2135SOL    HW2 6541   2.710   2.154   0.116
 2136SOL     OW 6542   3.534   2.411   1.914
 2136SOL    HW1 6543   3.487   2.344   1.964
 2136SOL    HW2 6544   3.465   2.464   1.875
 2137SOL     OW 6545   3.287   3.035   0.529
 2137SOL    HW1 6546   3.243   3.109   0.486
 2137SOL    HW2 6547   3.375   3.034   0.490
 2138SOL     OW 6548   2.399   1.976   0.895
 2138SOL    HW1 6549   2.400   1.978   0.800
 2138SOL    HW2 6550   2.477   1.925   0.919
 2139SOL     OW 6551   2.919   3.334   0.522
 2139SOL    HW1 6552   2.936   3.343   0.616
 2139SOL    HW2 6553   2.833   3.375   0.509
 2140SOL     OW 6554   2.251   3.637   0.932
 2140SOL    HW1 6555   2.334   3.660   0.973
 2140SOL    HW2 6556   2.253   3.680   0.847
 2141SOL     OW 6557   3.629   2.905   0.943
 2141SOL    HW1 6558   3.615   2.959   0.866
 2141SOL    HW2 6559   3.696   2.842   0.917
 2142SOL     OW 6560   3.038   3.588   1.514
 2142SOL    HW1 6561   2.951   3.548   1.514
 2142SOL    HW2 6562   3.040   3.640   1.594
 2143SOL     OW 6563   2.150   2.818   0.297
 2143SOL    HW1 6564   2.157   2.734   0.342
 2143SOL    HW2 6565   2.239   2.837   0.267
 2144SOL     OW 6566   3.321   2.630   0.718
 2144SOL    HW1 6567   3.265   2.691   0.670
 2144SOL    HW2 6568   3.368   2.582   0.650
 2145SOL     OW 6569   2.251   3.223   1.751
 2145SOL    HW1 6570   2.300   3.227   1.833
 2145SOL    HW2 6571   2.160   3.210   1.778
 2146SOL     OW 6572   2.926   3.658   0.142
 2146SOL    HW1 6573   3.013   3.693   0.160
 2146SOL    HW2 6574   2.942   3.568   0.113
 2147SOL     OW 6575   2.146   2.062   1.535
 2147SOL    HW1 6576   2.156   2.092   1.626
 2147SOL    HW2 6577   2.110   1.974   1.544
 2148SOL     OW 6578   3.599   3.192   0.036
 2148SOL    HW1 6579   3.506   3.167   0.037
 2148SOL    HW2 6580   3.599   3.285   0.017
 2149SOL     OW 6581   2.369   3.564   0.333
 2149SOL    HW1 6582   2.313   3.625   0.286
 2149SOL    HW2 6583   2.427   3.527   0.266
 2150SOL     OW 6584   3.271   2.097   0.435
 2150SOL    HW1 6585   3.193   2.153   0.443
 2150SOL    HW2 6586   3.259   2.030   0.503
 2151SOL     OW 6587   2.103   3.647   1.331
 2151SOL    HW1 6588   2.192   3.637   1.364
 2151SOL    HW2 6589   2.062   3.562   1.345
 2152SOL     OW 6590   2.786   3.589   0.888
 2152SOL    HW1 6591   2.812   3.607   0.978
 2152SOL    HW2 6592   2.834   3.654   0.836
 2153SOL     OW 6593   2.232   2.572   0.408
 2153SOL    HW1 6594   2.282   2.589   0.487
 2153SOL    HW2 6595   2.197   2.483   0.420
 2154SOL     OW 6596   3.331   2.071   1.654
 2154SOL    HW1 6597   3.251   2.020   1.646
 2154SOL    HW2 6598   3.302   2.162   1.655
 2155SOL     OW 6599   2.338   1.928   0.084
 2155SOL    HW1 6600   2.336   1.954  -0.008
 2155SOL    HW2 6601   2.401   1.856   0.086
 2156SOL     OW 6602   2.749   2.147   1.699
 2156SOL    HW1 6603   2.715   2.210   1.762
 2156SOL    HW2 6604   2.675   2.129   1.640
 2157SOL     OW 6605   2.744   3.334   1.109
 2157SOL    HW1 6606   2.789   3.300   1.186
 2157SOL    HW2 6607   2.657   3.360   1.141
 2158SOL     OW 6608   3.219   2.441   1.401
 2158SOL    HW1 6609   3.245   2.395   1.481
 2158SOL    HW2 6610   3.200   2.372   1.338
 2159SOL     OW 6611   2.668   3.215   0.874
 2159SOL    HW1 6612   2.696   3.267   0.949
 2159SOL    HW2 6613   2.750   3.181   0.837
 2160SOL     OW 6614   2.772   2.393   0.845
 2160SOL    HW1 6615   2.701   2.411   0.907
 2160SOL    HW2 6616   2.834   2.465   0.857
 2161SOL     OW 6617   2.391   1.910   0.622
 2161SOL    HW1 6618   2.302   1.892   0.654
 2161SOL    HW2 6619   2.388   1.887   0.529
 2162SOL     OW 6620   3.335   3.109   0.067
 2162SOL    HW1 6621   3.274   3.155   0.124
 2162SOL    HW2 6622   3.280   3.060   0.007
 2163SOL     OW 6623   2.057   1.951   0.105
 2163SOL    HW1 6624   2.151   1.936   0.117
 2163SOL    HW2 6625   2.026   1.974   0.193
 2164SOL     OW 6626   2.784   2.131   0.501
 2164SOL    HW1 6627   2.877   2.153   0.497
 2164SOL    HW2 6628   2.741   2.213   0.526
 2165SOL     OW 6629   2.938   2.417   1.426
 2165SOL    HW1 6630   3.031   2.437   1.415
 2165SOL    HW2 6631   2.922   2.343   1.367
 2166SOL     OW 6632   2.978   3.396   0.786
 2166SOL    HW1 6633   2.913   3.451   0.829
 2166SOL    HW2 6634   3.039   3.458   0.746
 2167SOL     OW 6635   2.335   2.893   0.696
 2167SOL    HW1 6636   2.297   2.915   0.781
 2167SOL    HW2 6637   2.275   2.933   0.632
 2168SOL     OW 6638   3.134   3.579   0.636
 2168SOL    HW1 6639   3.130   3.646   0.568
 2168SOL    HW2 6640   3.206   3.521   0.608
 2169SOL     OW 6641   2.820   2.449   4.976
 2169SOL    HW1 6642   2.895   2.404   4.937
 2169SOL    HW2 6643   2.773   2.380   5.022
 2170SOL     OW 6644   1.943   2.427   1.318
 2170SOL    HW1 6645   1.897   2.350   1.352
 2170SOL    HW2 6646   1.925   2.497   1.381
 2171SOL     OW 6647   2.351   2.084   1.148
 2171SOL    HW1 6648   2.421   2.061   1.210
 2171SOL    HW2 6649   2.379   2.045   1.065
 2172SOL     OW 6650   2.705   2.378   0.576
 2172SOL    HW1 6651   2.724   2.388   0.669
 2172SOL    HW2 6652   2.757   2.447   0.534
 2173SOL     OW 6653   2.910   1.918   0.731
 2173SOL    HW1 6654   2.897   1.992   0.790
 2173SOL    HW2 6655   2.832   1.916   0.676
 2174SOL     OW 6656   3.312   3.064   0.801
 2174SOL    HW1 6657   3.291   3.057   0.708
 2174SOL    HW2 6658   3.242   3.017   0.845
 2175SOL     OW 6659   3.873   2.699   0.525
 2175SOL    HW1 6660   3.786   2.729   0.550
 2175SOL    HW2 6661   3.890   2.740   0.440
 2176SOL     OW 6662   2.404   3.250   0.148
 2176SOL    HW1 6663   2.452   3.332   0.138
 2176SOL    HW2 6664   2.415   3.206   0.064
 2177SOL     OW 6665   3.581   3.056   0.718
 2177SOL    HW1 6666   3.491   3.071   0.750
 2177SOL    HW2 6667   3.570   3.038   0.624
 2178SOL     OW 6668   3.398   2.367   0.074
 2178SOL    HW1 6669   3.414   2.363   0.168
 2178SOL    HW2 6670   3.402   2.276   0.045
 2179SOL     OW 6671   2.270   2.134   0.246
 2179SOL    HW1 6672   2.254   2.208   0.188
 2179SOL    HW2 6673   2.310   2.068   0.190
 2180SOL     OW 6674   3.590   3.001   1.621
 2180SOL    HW1 6675   3.669   2.947   1.627
 2180SOL    HW2 6676   3.579   3.019   1.528
 2181SOL     OW 6677   2.905   3.237   1.338
 2181SOL    HW1 6678   2.953   3.171   1.388
 2181SOL    HW2 6679   2.968   3.270   1.275
 2182SOL     OW 6680   3.439   3.387   1.650
 2182SOL    HW1 6681   3.531   3.359   1.648
 2182SOL    HW2 6682   3.390   3.305   1.640
 2183SOL     OW 6683   3.063   3.051   1.050
 2183SOL    HW1 6684   3.105   2.989   1.109
 2183SOL    HW2 6685   3.076   3.136   1.092
 2184SOL     OW 6686   3.485   2.887   1.171
 2184SOL    HW1 6687   3.526   2.807   1.203
 2184SOL    HW2 6688   3.526   2.902   1.086
 2185SOL     OW 6689   2.787   1.951   1.397
 2185SOL    HW1 6690   2.807   1.947   1.304
 2185SOL    HW2 6691   2.800   1.861   1.428
 2186SOL     OW 6692   2.858   2.984   1.707
 2186SOL    HW1 6693   2.910   3.062   1.691
 2186SOL    HW2 6694   2.771   3.017   1.731
 2187SOL     OW 6695   2.628   2.896   0.382
 2187SOL    HW1 6696   2.613   2.876   0.474
 2187SOL    HW2 6697   2.606   2.989   0.373
 2188SOL     OW 6698   2.262   2.704   1.234
 2188SOL    HW1 6699   2.300   2.740   1.314
 2188SOL    HW2 6700   2.250   2.611   1.253
 2189SOL     OW 6701   3.131   2.265   1.216
 2189SOL    HW1 6702   3.092   2.202   1.276
 2189SOL    HW2 6703   3.096   2.242   1.130
 2190SOL     OW 6704   1.973   3.410   1.405
 2190SOL    HW1 6705   1.926   3.406   1.488
 2190SOL    HW2 6706   1.940   3.336   1.355
 2191SOL     OW 6707   2.152   2.998   0.517
 2191SOL    HW1 6708   2.180   3.075   0.467
 2191SOL    HW2 6709   2.134   2.931   0.452
 2192SOL     OW 6710   2.386   2.500   0.879
 2192SOL    HW1 6711   2.466   2.509   0.931
 2192SOL    HW2 6712   2.335   2.434   0.925
 2193SOL     OW 6713   3.158   3.253   0.422
 2193SOL    HW1 6714   3.219   3.317   0.457
 2193SOL    HW2 6715   3.073   3.281   0.455
 2194SOL     OW 6716   3.123   3.300   1.180
 2194SOL    HW1 6717   3.159   3.366   1.240
 2194SOL    HW2 6718   3.196   3.276   1.123
 2195SOL     OW 6719   3.436   2.540   0.487
 2195SOL    HW1 6720   3.444   2.455   0.443
 2195SOL    HW2 6721   3.390   2.595   0.424
 2196SOL     OW 6722   2.211   3.265   1.386
 2196SOL    HW1 6723   2.143   3.328   1.409
 2196SOL    HW2 6724   2.192   3.242   1.295
 2197SOL     OW 6725   2.276   2.590   1.631
 2197SOL    HW1 6726   2.207   2.525   1.619
 2197SOL    HW2 6727   2.355   2.539   1.650
 2198SOL     OW 6728   3.336   2.562   1.802
 2198SOL    HW1 6729   3.385   2.641   1.784
 2198SOL    HW2 6730   3.251   2.593   1.834
 2199SOL     OW 6731   2.878   1.905   1.752
 2199SOL    HW1 6732   2.908   1.938   1.837
 2199SOL    HW2 6733   2.823   1.975   1.717
 2200SOL     OW 6734   2.379   1.925   1.813
 2200SOL    HW1 6735   2.427   1.917   1.896
 2200SOL    HW2 6736   2.406   1.849   1.762
 2201SOL     OW 6737   2.433   2.768   1.028
 2201SOL    HW1 6738   2.371   2.742   1.098
 2201SOL    HW2 6739   2.455   2.859   1.048
 2202SOL     OW 6740   3.193   2.561   0.950
 2202SOL    HW1 6741   3.104   2.593   0.940
 2202SOL    HW2 6742   3.239   2.593   0.872
 2203SOL     OW 6743   3.030   2.404   0.250
 2203SOL    HW1 6744   3.083   2.460   0.194
 2203SOL    HW2 6745   3.029   2.319   0.205
 2204SOL     OW 6746   2.095   2.087   1.265
 2204SOL    HW1 6747   2.183   2.090   1.227
 2204SOL    HW2 6748   2.111   2.086   1.360
 2205SOL     OW 6749   1.902   3.173   1.286
 2205SOL    HW1 6750   1.941   3.099   1.331
 2205SOL    HW2 6751   1.917   3.156   1.193
 2206SOL     OW 6752   2.603   2.471   1.051
 2206SOL    HW1 6753   2.676   2.523   1.087
 2206SOL    HW2 6754   2.567   2.425   1.127
 2207SOL     OW 6755   3.467   2.811   1.784
 2207SOL    HW1 6756   3.471   2.832   1.878
 2207SOL    HW2 6757   3.506   2.888   1.742
 2208SOL     OW 6758   2.133   1.848   0.679
 2208SOL    HW1 6759   2.087   1.817   0.757
 2208SOL    HW2 6760   2.116   1.782   0.612
 2209SOL     OW 6761   3.439   2.302   0.343
 2209SOL    HW1 6762   3.526   2.266   0.325
 2209SOL    HW2 6763   3.390   2.228   0.380
 2210SOL     OW 6764   2.915   2.631   0.927
 2210SOL    HW1 6765   2.905   2.599   1.016
 2210SOL    HW2 6766   2.841   2.691   0.915
 2211SOL     OW 6767   2.869   3.395   1.776
 2211SOL    HW1 6768   2.917   3.320   1.740
 2211SOL    HW2 6769   2.826   3.434   1.700
 2212SOL     OW 6770   3.685   3.278   1.644
 2212SOL    HW1 6771   3.773   3.305   1.668
 2212SOL    HW2 6772   3.683   3.184   1.661
 2213SOL     OW 6773   2.164   2.646   1.879
 2213SOL    HW1 6774   2.157   2.551   1.889
 2213SOL    HW2 6775   2.202   2.658   1.792
 2214SOL     OW 6776   3.422   2.101   0.019
 2214SOL    HW1 6777   3.379   2.041   0.080
 2214SOL    HW2 6778   3.515   2.079   0.026
 2215SOL     OW 6779   3.193   2.549   0.087
 2215SOL    HW1 6780   3.192   2.605   0.009
 2215SOL    HW2 6781   3.265   2.488   0.071
 2216SOL     OW 6782   2.923   3.121   0.822
 2216SOL    HW1 6783   2.959   3.208   0.808
 2216SOL    HW2 6784   2.969   3.088   0.900
 2217SOL     OW 6785   2.168   2.683   0.895
 2217SOL    HW1 6786   2.252   2.639   0.904
 2217SOL    HW2 6787   2.186   2.775   0.916
 2218SOL     OW 6788   2.266   2.326   1.053
 2218SOL    HW1 6789   2.243   2.381   1.128
 2218SOL    HW2 6790   2.301   2.246   1.092
 2219SOL     OW 6791   2.986   2.293   1.668
 2219SOL    HW1 6792   2.916   2.230   1.684
 2219SOL    HW2 6793   2.961   2.338   1.588
 2220SOL     OW 6794   3.021   2.109   1.407
 2220SOL    HW1 6795   2.934   2.070   1.404
 2220SOL    HW2 6796   3.066   2.062   1.477
 2221SOL     OW 6797   1.804   3.271   0.196
 2221SOL    HW1 6798   1.846   3.357   0.185
 2221SOL    HW2 6799   1.878   3.210   0.202
 2222SOL     OW 6800   1.962   3.643   0.985
 2222SOL    HW1 6801   2.058   3.638   0.980
 2222SOL    HW2 6802   1.941   3.611   1.072
 2223SOL     OW 6803   2.292   3.369   0.962
 2223SOL    HW1 6804   2.334   3.341   0.881
 2223SOL    HW2 6805   2.264   3.459   0.944
 2224SOL     OW 6806   2.853   2.525   1.167
 2224SOL    HW1 6807   2.873   2.556   1.256
 2224SOL    HW2 6808   2.849   2.430   1.176
 2225SOL     OW 6809   1.822   2.415   1.063
 2225SOL    HW1 6810   1.882   2.421   1.137
 2225SOL    HW2 6811   1.860   2.470   0.995
 2226SOL     OW 6812   2.064   2.405   1.664
 2226SOL    HW1 6813   2.092   2.386   1.753
 2226SOL    HW2 6814   1.994   2.342   1.646
 2227SOL     OW 6815   3.083   2.770   1.602
 2227SOL    HW1 6816   3.153   2.745   1.542
 2227SOL    HW2 6817   3.066   2.862   1.582
 2228SOL     OW 6818   2.598   2.403   0.312
 2228SOL    HW1 6819   2.675   2.458   0.319
 2228SOL    HW2 6820   2.583   2.370   0.400
 2229SOL     OW 6821   3.566   2.436   1.191
 2229SOL    HW1 6822   3.567   2.383   1.271
 2229SOL    HW2 6823   3.589   2.524   1.220
 2230SOL     OW 6824   2.185   3.475   1.647
 2230SOL    HW1 6825   2.137   3.506   1.724
 2230SOL    HW2 6826   2.212   3.386   1.669
 2231SOL     OW 6827   2.560   2.351   1.300
 2231SOL    HW1 6828   2.479   2.315   1.337
 2231SOL    HW2 6829   2.593   2.411   1.368
 2232SOL     OW 6830   2.802   3.449   1.509
 2232SOL    HW1 6831   2.717   3.478   1.477
 2232SOL    HW2 6832   2.828   3.378   1.451
 2233SOL     OW 6833   2.248   2.340   0.069
 2233SOL    HW1 6834   2.291   2.414   0.112
 2233SOL    HW2 6835   2.312   2.309   0.004
 2234SOL     OW 6836   2.018   2.964   1.423
 2234SOL    HW1 6837   2.105   2.987   1.457
 2234SOL    HW2 6838   1.973   2.923   1.496
 2235SOL     OW 6839   3.223   2.916   1.254
 2235SOL    HW1 6840   3.228   2.837   1.307
 2235SOL    HW2 6841   3.307   2.918   1.207
 2236SOL     OW 6842   3.290   2.692   0.304
 2236SOL    HW1 6843   3.342   2.755   0.254
 2236SOL    HW2 6844   3.242   2.642   0.239
 2237SOL     OW 6845   3.605   3.576   1.200
 2237SOL    HW1 6846   3.555   3.568   1.281
 2237SOL    HW2 6847   3.538   3.573   1.131
 2238SOL     OW 6848   3.132   3.590   1.071
 2238SOL    HW1 6849   3.053   3.645   1.076
 2238SOL    HW2 6850   3.099   3.504   1.046
 2239SOL     OW 6851   1.952   3.180   1.010
 2239SOL    HW1 6852   2.041   3.178   1.046
 2239SOL    HW2 6853   1.964   3.167   0.916
 2240SOL     OW 6854   2.522   3.533   1.782
 2240SOL    HW1 6855   2.524   3.452   1.733
 2240SOL    HW2 6856   2.529   3.506   1.874
 2241SOL     OW 6857   2.786   1.983   0.125
 2241SOL    HW1 6858   2.768   1.904   0.177
 2241SOL    HW2 6859   2.803   1.950   0.037
 2242SOL     OW 6860   3.737   2.004   0.594
 2242SOL    HW1 6861   3.736   2.003   0.690
 2242SOL    HW2 6862   3.683   1.928   0.569
 2243SOL     OW 6863   3.342   3.426   0.537
 2243SOL    HW1 6864   3.391   3.440   0.617
 2243SOL    HW2 6865   3.404   3.446   0.467
 2244SOL     OW 6866   2.022   3.568   1.842
 2244SOL    HW1 6867   1.963   3.532   1.908
 2244SOL    HW2 6868   1.964   3.607   1.777
 2245SOL     OW 6869   3.180   2.783   0.542
 2245SOL    HW1 6870   3.205   2.876   0.541
 2245SOL    HW2 6871   3.207   2.751   0.455
 2246SOL     OW 6872   2.640   3.164   1.421
 2246SOL    HW1 6873   2.729   3.182   1.393
 2246SOL    HW2 6874   2.638   3.070   1.437
 2247SOL     OW 6875   2.549   3.486   0.139
 2247SOL    HW1 6876   2.612   3.522   0.202
 2247SOL    HW2 6877   2.571   3.531   0.057
 2248SOL     OW 6878   3.457   3.564   1.432
 2248SOL    HW1 6879   3.458   3.511   1.512
 2248SOL    HW2 6880   3.371   3.546   1.393
 2249SOL     OW 6881   3.692   2.050   0.860
 2249SOL    HW1 6882   3.668   2.040   0.952
 2249SOL    HW2 6883   3.646   2.128   0.831
 2250SOL     OW 6884   2.092   2.110   0.607
 2250SOL    HW1 6885   2.109   2.148   0.693
 2250SOL    HW2 6886   2.099   2.015   0.621
 2251SOL     OW 6887   2.997   3.407   0.064
 2251SOL    HW1 6888   3.051   3.410  -0.015
 2251SOL    HW2 6889   3.025   3.328   0.110
 2252SOL     OW 6890   2.620   2.897   1.440
 2252SOL    HW1 6891   2.678   2.832   1.479
 2252SOL    HW2 6892   2.533   2.858   1.444
 2253SOL     OW 6893   2.886   2.808   0.393
 2253SOL    HW1 6894   2.904   2.837   0.483
 2253SOL    HW2 6895   2.797   2.839   0.376
 2254SOL     OW 6896   3.290   3.553   0.038
 2254SOL    HW1 6897   3.334   3.481   0.084
 2254SOL    HW2 6898   3.254   3.512  -0.041
 2255SOL     OW 6899   2.257   3.046   1.537
 2255SOL    HW1 6900   2.259   3.085   1.624
 2255SOL    HW2 6901   2.254   3.120   1.476
 2256SOL     OW 6902   3.531   3.078   1.357
 2256SOL    HW1 6903   3.480   3.152   1.323
 2256SOL    HW2 6904   3.514   3.007   1.295
 2257SOL     OW 6905   2.868   2.902   0.651
 2257SOL    HW1 6906   2.889   2.978   0.705
 2257SOL    HW2 6907   2.774   2.889   0.664
 2258SOL     OW 6908   2.865   2.131   0.899
 2258SOL    HW1 6909   2.953   2.165   0.917
 2258SOL    HW2 6910   2.814   2.207   0.875
 2259SOL     OW 6911   2.495   3.380   0.501
 2259SOL    HW1 6912   2.569   3.426   0.538
 2259SOL    HW2 6913   2.450   3.445   0.448
 2260SOL     OW 6914   3.566   2.270   1.408
 2260SOL    HW1 6915   3.569   2.284   1.503
 2260SOL    HW2 6916   3.526   2.184   1.397
 2261SOL     OW 6917   2.209   3.217   0.353
 2261SOL    HW1 6918   2.135   3.185   0.301
 2261SOL    HW2 6919   2.278   3.233   0.289
 2262SOL     OW 6920   1.904   2.842   1.643
 2262SOL    HW1 6921   1.876   2.821   1.732
 2262SOL    HW2 6922   1.903   2.758   1.597
 2263SOL     OW 6923   2.563   2.065   1.504
 2263SOL    HW1 6924   2.645   2.036   1.464
 2263SOL    HW2 6925   2.509   1.986   1.508
 2264SOL     OW 6926   3.283   2.704   1.427
 2264SOL    HW1 6927   3.374   2.700   1.458
 2264SOL    HW2 6928   3.259   2.613   1.409
 2265SOL     OW 6929   1.962   2.001   0.371
 2265SOL    HW1 6930   1.884   1.995   0.425
 2265SOL    HW2 6931   2.022   2.056   0.421
 2266SOL     OW 6932   3.063   3.159   0.184
 2266SOL    HW1 6933   3.092   3.187   0.271
 2266SOL    HW2 6934   3.050   3.065   0.192
 2267SOL     OW 6935   2.363   2.799   1.471
 2267SOL    HW1 6936   2.331   2.733   1.533
 2267SOL    HW2 6937   2.324   2.881   1.502
 2268SOL     OW 6938   3.402   3.624   1.010
 2268SOL    HW1 6939   3.309   3.611   1.030
 2268SOL    HW2 6940   3.406   3.712   0.973
 2269SOL     OW 6941   2.499   2.445   1.686
 2269SOL    HW1 6942   2.561   2.462   1.615
 2269SOL    HW2 6943   2.552   2.405   1.755
 2270SOL     OW 6944   3.332   3.121   1.655
 2270SOL    HW1 6945   3.421   3.086   1.644
 2270SOL    HW2 6946   3.305   3.090   1.741
 2271SOL     OW 6947   2.335   3.633   1.489
 2271SOL    HW1 6948   2.286   3.573   1.545
 2271SOL    HW2 6949   2.378   3.693   1.549
 2272SOL     OW 6950   3.633   2.685   1.286
 2272SOL    HW1 6951   3.609   2.688   1.379
 2272SOL    HW2 6952   3.721   2.721   1.283
 2273SOL     OW 6953   3.038   2.241   0.473
 2273SOL    HW1 6954   3.065   2.279   0.557
 2273SOL    HW2 6955   3.035   2.316   0.413
 2274SOL     OW 6956   2.373   2.624   0.635
 2274SOL    HW1 6957   2.344   2.709   0.666
 2274SOL    HW2 6958   2.377   2.570   0.714
 2275SOL     OW 6959   3.605   2.262   1.678
 2275SOL    HW1 6960   3.604   2.338   1.737
 2275SOL    HW2 6961   3.566   2.192   1.730
 2276SOL     OW 6962   3.539   2.685   1.547
 2276SOL    HW1 6963   3.609   2.630   1.580
 2276SOL    HW2 6964   3.506   2.730   1.625
 2277SOL     OW 6965   2.820   3.155   0.037
 2277SOL    HW1 6966   2.891   3.150   0.101
 2277SOL    HW2 6967   2.778   3.239   0.054
 2278SOL     OW 6968   2.531   3.635   1.027
 2278SOL    HW1 6969   2.525   3.561   1.088
 2278SOL    HW2 6970   2.602   3.612   0.968
 2279SOL     OW 6971   2.676   2.762   0.903
 2279SOL    HW1 6972   2.594   2.741   0.947
 2279SOL    HW2 6973   2.651   2.778   0.812
 2280SOL     OW 6974   2.999   2.886   0.160
 2280SOL    HW1 6975   2.974   2.859   0.248
 2280SOL    HW2 6976   2.950   2.828   0.102
 2281SOL     OW 6977   3.692   3.368   0.876
 2281SOL    HW1 6978   3.752   3.436   0.906
 2281SOL    HW2 6979   3.748   3.307   0.828
 2282SOL     OW 6980   1.994   3.199   1.827
 2282SOL    HW1 6981   1.954   3.204   1.914
 2282SOL    HW2 6982   1.930   3.150   1.775
 2283SOL     OW 6983   2.048   3.129   0.748
 2283SOL    HW1 6984   2.054   3.070   0.674
 2283SOL    HW2 6985   2.077   3.214   0.714
 2284SOL     OW 6986   2.510   3.295   1.639
 2284SOL    HW1 6987   2.545   3.271   1.554
 2284SOL    HW2 6988   2.417   3.271   1.634
 2285SOL     OW 6989   3.651   2.043   1.129
 2285SOL    HW1 6990   3.568   2.087   1.148
 2285SOL    HW2 6991   3.714   2.085   1.188
 2286SOL     OW 6992   2.159   2.309   0.434
 2286SOL    HW1 6993   2.131   2.249   0.504
 2286SOL    HW2 6994   2.205   2.253   0.371
 2287SOL     OW 6995   3.589   3.254   1.102
 2287SOL    HW1 6996   3.619   3.294   1.020
 2287SOL    HW2 6997   3.670   3.226   1.146
 2288SOL     OW 6998   2.218   2.439   1.298
 2288SOL    HW1 6999   2.255   2.375   1.359
 2288SOL    HW2 7000   2.123   2.430   1.309
 2289SOL     OW 7001   2.693   3.502   0.633
 2289SOL    HW1 7002   2.709   3.510   0.727
 2289SOL    HW2 7003   2.716   3.588   0.598
 2290SOL     OW 7004   3.385   2.107   1.150
 2290SOL    HW1 7005   3.382   2.083   1.243
 2290SOL    HW2 7006   3.356   2.028   1.104
 2291SOL     OW 7007   2.873   1.986   1.140
 2291SOL    HW1 7008   2.944   1.922   1.133
 2291SOL    HW2 7009   2.860   2.017   1.050
 2292SOL     OW 7010   2.543   3.148   0.363
 2292SOL    HW1 7011   2.532   3.224   0.421
 2292SOL    HW2 7012   2.494   3.171   0.284
 2293SOL     OW 7013   2.476   3.387   1.163
 2293SOL    HW1 7014   2.410   3.392   1.093
 2293SOL    HW2 7015   2.465   3.300   1.200
 2294SOL     OW 7016   3.234   1.966   0.195
 2294SOL    HW1 7017   3.267   1.997   0.279
 2294SOL    HW2 7018   3.160   2.024   0.176
 2295SOL     OW 7019   3.134   2.366   0.697
 2295SOL    HW1 7020   3.226   2.390   0.710
 2295SOL    HW2 7021   3.089   2.450   0.684
 2296SOL     OW 7022   3.293   2.045   0.823
 2296SOL    HW1 7023   3.320   1.975   0.882
 2296SOL    HW2 7024   3.254   2.001   0.748
 2297SOL     OW 7025   2.714   3.614   0.312
 2297SOL    HW1 7026   2.729   3.661   0.394
 2297SOL    HW2 7027   2.794   3.629   0.261
 2298SOL     OW 7028   2.139   2.380   1.935
 2298SOL    HW1 7029   2.068   2.318   1.948
 2298SOL    HW2 7030   2.176   2.393   2.023
 2299SOL     OW 7031   1.983   2.177   2.933
 2299SOL    HW1 7032   2.037   2.256   2.925
 2299SOL    HW2 7033   2.020   2.131   3.009
 2300SOL     OW 7034   1.737   2.205   2.419
 2300SOL    HW1 7035   1.831   2.225   2.425
 2300SOL    HW2 7036   1.699   2.254   2.492
 2301SOL     OW 7037   2.497   3.212   3.070
 2301SOL    HW1 7038   2.547   3.220   3.152
 2301SOL    HW2 7039   2.532   3.282   3.015
 2302SOL     OW 7040   3.418   3.281   2.579
 2302SOL    HW1 7041   3.501   3.326   2.594
 2302SOL    HW2 7042   3.443   3.194   2.548
 2303SOL     OW 7043   3.679   2.454   2.144
 2303SOL    HW1 7044   3.658   2.370   2.186
 2303SOL    HW2 7045   3.634   2.450   2.060
 2304SOL     OW 7046   2.600   2.603   3.718
 2304SOL    HW1 7047   2.524   2.648   3.756
 2304SOL    HW2 7048   2.566   2.516   3.693
 2305SOL     OW 7049   2.501   2.847   3.549
 2305SOL    HW1 7050   2.429   2.906   3.529
 2305SOL    HW2 7051   2.483   2.816   3.638
 2306SOL     OW 7052   2.234   3.264   2.996
 2306SOL    HW1 7053   2.313   3.219   3.024
 2306SOL    HW2 7054   2.261   3.316   2.920
 2307SOL     OW 7055   3.391   3.378   3.204
 2307SOL    HW1 7056   3.371   3.410   3.292
 2307SOL    HW2 7057   3.323   3.418   3.149
 2308SOL     OW 7058   2.192   2.329   3.453
 2308SOL    HW1 7059   2.275   2.286   3.473
 2308SOL    HW2 7060   2.188   2.331   3.358
 2309SOL     OW 7061   3.317   2.202   2.619
 2309SOL    HW1 7062   3.230   2.236   2.638
 2309SOL    HW2 7063   3.351   2.259   2.550
 2310SOL     OW 7064   2.158   3.560   2.368
 2310SOL    HW1 7065   2.067   3.553   2.338
 2310SOL    HW2 7066   2.184   3.469   2.385
 2311SOL     OW 7067   3.030   3.040   3.526
 2311SOL    HW1 7068   3.034   3.133   3.502
 2311SOL    HW2 7069   2.940   3.027   3.555
 2312SOL     OW 7070   2.250   3.303   2.384
 2312SOL    HW1 7071   2.342   3.280   2.386
 2312SOL    HW2 7072   2.213   3.250   2.313
 2313SOL     OW 7073   2.539   3.800   3.344
 2313SOL    HW1 7074   2.505   3.776   3.430
 2313SOL    HW2 7075   2.500   3.736   3.285
 2314SOL     OW 7076   3.522   2.070   3.347
 2314SOL    HW1 7077   3.530   2.082   3.442
 2314SOL    HW2 7078   3.472   1.988   3.338
 2315SOL     OW 7079   3.678   3.624   2.242
 2315SOL    HW1 7080   3.587   3.611   2.214
 2315SOL    HW2 7081   3.698   3.714   2.217
 2316SOL     OW 7082   1.871   3.469   2.038
 2316SOL    HW1 7083   1.877   3.513   2.122
 2316SOL    HW2 7084   1.857   3.377   2.059
 2317SOL     OW 7085   3.429   2.624   2.444
 2317SOL    HW1 7086   3.515   2.646   2.410
 2317SOL    HW2 7087   3.421   2.529   2.431
 2318SOL     OW 7088   3.322   2.867   2.363
 2318SOL    HW1 7089   3.314   2.856   2.269
 2318SOL    HW2 7090   3.350   2.781   2.395
 2319SOL     OW 7091   1.964   2.608   3.350
 2319SOL    HW1 7092   2.047   2.653   3.336
 2319SOL    HW2 7093   1.897   2.675   3.336
 2320SOL     OW 7094   2.541   3.197   2.652
 2320SOL    HW1 7095   2.604   3.268   2.663
 2320SOL    HW2 7096   2.519   3.197   2.559
 2321SOL     OW 7097   3.226   3.087   3.278
 2321SOL    HW1 7098   3.216   3.005   3.327
 2321SOL    HW2 7099   3.227   3.060   3.186
 2322SOL     OW 7100   3.254   2.825   2.088
 2322SOL    HW1 7101   3.174   2.837   2.139
 2322SOL    HW2 7102   3.232   2.757   2.024
 2323SOL     OW 7103   3.066   3.633   3.513
 2323SOL    HW1 7104   3.042   3.722   3.538
 2323SOL    HW2 7105   2.995   3.603   3.456
 2324SOL     OW 7106   2.150   2.196   3.739
 2324SOL    HW1 7107   2.202   2.158   3.668
 2324SOL    HW2 7108   2.212   2.252   3.786
 2325SOL     OW 7109   3.282   3.314   2.811
 2325SOL    HW1 7110   3.360   3.334   2.862
 2325SOL    HW2 7111   3.315   3.290   2.724
 2326SOL     OW 7112   3.627   3.641   2.524
 2326SOL    HW1 7113   3.618   3.559   2.572
 2326SOL    HW2 7114   3.648   3.615   2.434
 2327SOL     OW 7115   3.090   2.289   2.783
 2327SOL    HW1 7116   3.014   2.234   2.802
 2327SOL    HW2 7117   3.055   2.360   2.728
 2328SOL     OW 7118   3.416   3.578   2.156
 2328SOL    HW1 7119   3.348   3.545   2.215
 2328SOL    HW2 7120   3.407   3.523   2.078
 2329SOL     OW 7121   2.681   2.414   3.358
 2329SOL    HW1 7122   2.644   2.502   3.351
 2329SOL    HW2 7123   2.715   2.395   3.271
 2330SOL     OW 7124   3.297   2.274   3.547
 2330SOL    HW1 7125   3.272   2.321   3.468
 2330SOL    HW2 7126   3.242   2.312   3.616
 2331SOL     OW 7127   2.952   2.763   3.460
 2331SOL    HW1 7128   3.021   2.828   3.447
 2331SOL    HW2 7129   2.877   2.814   3.491
 2332SOL     OW 7130   2.825   2.336   3.124
 2332SOL    HW1 7131   2.912   2.297   3.132
 2332SOL    HW2 7132   2.783   2.288   3.052
 2333SOL     OW 7133   1.994   3.663   3.501
 2333SOL    HW1 7134   2.002   3.709   3.584
 2333SOL    HW2 7135   1.975   3.731   3.437
 2334SOL     OW 7136   3.481   2.527   3.726
 2334SOL    HW1 7137   3.439   2.607   3.696
 2334SOL    HW2 7138   3.534   2.498   3.652
 2335SOL     OW 7139   2.772   3.376   2.382
 2335SOL    HW1 7140   2.765   3.446   2.317
 2335SOL    HW2 7141   2.857   3.337   2.366
 2336SOL     OW 7142   2.177   3.637   2.761
 2336SOL    HW1 7143   2.189   3.729   2.784
 2336SOL    HW2 7144   2.084   3.630   2.739
 2337SOL     OW 7145   3.666   3.010   2.752
 2337SOL    HW1 7146   3.752   2.978   2.724
 2337SOL    HW2 7147   3.614   3.010   2.672
 2338SOL     OW 7148   3.091   3.288   3.394
 2338SOL    HW1 7149   3.152   3.359   3.413
 2338SOL    HW2 7150   3.144   3.222   3.349
 2339SOL     OW 7151   3.262   2.614   2.669
 2339SOL    HW1 7152   3.183   2.576   2.632
 2339SOL    HW2 7153   3.320   2.627   2.594
 2340SOL     OW 7154   2.271   2.996   3.547
 2340SOL    HW1 7155   2.278   3.051   3.625
 2340SOL    HW2 7156   2.212   2.926   3.572
 2341SOL     OW 7157   3.036   3.640   2.134
 2341SOL    HW1 7158   3.088   3.719   2.122
 2341SOL    HW2 7159   3.083   3.591   2.202
 2342SOL     OW 7160   2.013   2.105   3.413
 2342SOL    HW1 7161   2.059   2.183   3.444
 2342SOL    HW2 7162   1.921   2.122   3.433
 2343SOL     OW 7163   3.497   3.174   1.942
 2343SOL    HW1 7164   3.590   3.166   1.965
 2343SOL    HW2 7165   3.480   3.268   1.947
 2344SOL     OW 7166   2.346   3.623   2.177
 2344SOL    HW1 7167   2.376   3.713   2.193
 2344SOL    HW2 7168   2.289   3.604   2.251
 2345SOL     OW 7169   3.300   1.977   2.295
 2345SOL    HW1 7170   3.290   2.070   2.274
 2345SOL    HW2 7171   3.386   1.972   2.338
 2346SOL     OW 7172   2.050   3.627   3.151
 2346SOL    HW1 7173   1.966   3.580   3.157
 2346SOL    HW2 7174   2.116   3.560   3.172
 2347SOL     OW 7175   2.859   3.621   2.738
 2347SOL    HW1 7176   2.881   3.696   2.683
 2347SOL    HW2 7177   2.942   3.575   2.750
 2348SOL     OW 7178   3.536   2.172   3.614
 2348SOL    HW1 7179   3.584   2.254   3.604
 2348SOL    HW2 7180   3.446   2.194   3.591
 2349SOL     OW 7181   2.581   2.083   3.710
 2349SOL    HW1 7182   2.673   2.065   3.688
 2349SOL    HW2 7183   2.569   2.176   3.690
 2350SOL     OW 7184   2.698   3.429   3.152
 2350SOL    HW1 7185   2.775   3.373   3.156
 2350SOL    HW2 7186   2.677   3.435   3.059
 2351SOL     OW 7187   3.249   2.423   3.313
 2351SOL    HW1 7188   3.157   2.448   3.324
 2351SOL    HW2 7189   3.298   2.505   3.316
 2352SOL     OW 7190   2.588   3.407   2.900
 2352SOL    HW1 7191   2.499   3.422   2.869
 2352SOL    HW2 7192   2.642   3.409   2.821
 2353SOL     OW 7193   3.260   3.053   1.927
 2353SOL    HW1 7194   3.346   3.094   1.939
 2353SOL    HW2 7195   3.263   2.976   1.983
 2354SOL     OW 7196   2.146   1.881   2.068
 2354SOL    HW1 7197   2.208   1.810   2.084
 2354SOL    HW2 7198   2.162   1.943   2.140
 2355SOL     OW 7199   3.006   2.519   3.365
 2355SOL    HW1 7200   2.965   2.455   3.423
 2355SOL    HW2 7201   2.987   2.603   3.406
 2356SOL     OW 7202   3.101   3.507   2.746
 2356SOL    HW1 7203   3.163   3.437   2.765
 2356SOL    HW2 7204   3.144   3.561   2.681
 2357SOL     OW 7205   3.156   3.691   2.539
 2357SOL    HW1 7206   3.080   3.742   2.566
 2357SOL    HW2 7207   3.215   3.755   2.499
 2358SOL     OW 7208   1.907   2.406   3.183
 2358SOL    HW1 7209   1.927   2.480   3.240
 2358SOL    HW2 7210   1.990   2.360   3.172
 2359SOL     OW 7211   2.823   2.006   2.582
 2359SOL    HW1 7212   2.766   2.056   2.523
 2359SOL    HW2 7213   2.905   1.996   2.534
 2360SOL     OW 7214   3.328   2.960   2.739
 2360SOL    HW1 7215   3.362   2.929   2.823
 2360SOL    HW2 7216   3.234   2.966   2.751
 2361SOL     OW 7217   3.289   2.456   2.891
 2361SOL    HW1 7218   3.225   2.387   2.874
 2361SOL    HW2 7219   3.291   2.507   2.810
 2362SOL     OW 7220   3.674   2.671   2.314
 2362SOL    HW1 7221   3.694   2.754   2.271
 2362SOL    HW2 7222   3.671   2.607   2.243
 2363SOL     OW 7223   2.356   3.254   2.004
 2363SOL    HW1 7224   2.281   3.243   2.063
 2363SOL    HW2 7225   2.400   3.333   2.037
 2364SOL     OW 7226   3.488   3.016   2.534
 2364SOL    HW1 7227   3.428   2.997   2.607
 2364SOL    HW2 7228   3.448   2.974   2.458
 2365SOL     OW 7229   3.694   3.052   3.407
 2365SOL    HW1 7230   3.604   3.072   3.433
 2365SOL    HW2 7231   3.695   2.956   3.396
 2366SOL     OW 7232   2.913   3.266   3.185
 2366SOL    HW1 7233   2.975   3.249   3.114
 2366SOL    HW2 7234   2.969   3.284   3.261
 2367SOL     OW 7235   3.291   3.484   3.445
 2367SOL    HW1 7236   3.328   3.472   3.532
 2367SOL    HW2 7237   3.222   3.550   3.457
 2368SOL     OW 7238   3.507   2.952   2.975
 2368SOL    HW1 7239   3.527   3.022   3.037
 2368SOL    HW2 7240   3.564   2.969   2.900
 2369SOL     OW 7241   2.769   1.926   3.234
 2369SOL    HW1 7242   2.790   1.837   3.261
 2369SOL    HW2 7243   2.775   1.924   3.139
 2370SOL     OW 7244   2.761   2.936   3.579
 2370SOL    HW1 7245   2.738   3.019   3.622
 2370SOL    HW2 7246   2.676   2.896   3.557
 2371SOL     OW 7247   3.089   2.222   3.165
 2371SOL    HW1 7248   3.151   2.286   3.199
 2371SOL    HW2 7249   3.136   2.179   3.093
 2372SOL     OW 7250   1.798   3.494   3.158
 2372SOL    HW1 7251   1.808   3.407   3.197
 2372SOL    HW2 7252   1.729   3.536   3.210
 2373SOL     OW 7253   3.031   3.286   2.323
 2373SOL    HW1 7254   3.065   3.211   2.372
 2373SOL    HW2 7255   3.049   3.266   2.231
 2374SOL     OW 7256   3.099   3.213   2.994
 2374SOL    HW1 7257   3.136   3.125   3.005
 2374SOL    HW2 7258   3.151   3.252   2.924
 2375SOL     OW 7259   3.422   2.352   2.405
 2375SOL    HW1 7260   3.358   2.317   2.344
 2375SOL    HW2 7261   3.506   2.316   2.377
 2376SOL     OW 7262   2.238   3.423   3.222
 2376SOL    HW1 7263   2.250   3.353   3.286
 2376SOL    HW2 7264   2.229   3.377   3.138
 2377SOL     OW 7265   2.228   2.691   3.343
 2377SOL    HW1 7266   2.280   2.736   3.276
 2377SOL    HW2 7267   2.278   2.611   3.363
 2378SOL     OW 7268   3.321   2.753   3.692
 2378SOL    HW1 7269   3.324   2.835   3.741
 2378SOL    HW2 7270   3.241   2.710   3.723
 2379SOL     OW 7271   2.811   2.005   3.588
 2379SOL    HW1 7272   2.803   1.910   3.584
 2379SOL    HW2 7273   2.882   2.026   3.528
 2380SOL     OW 7274   2.285   2.040   3.536
 2380SOL    HW1 7275   2.372   2.028   3.498
 2380SOL    HW2 7276   2.227   1.992   3.477
 2381SOL     OW 7277   3.211   2.736   2.913
 2381SOL    HW1 7278   3.208   2.652   2.959
 2381SOL    HW2 7279   3.227   2.712   2.822
 2382SOL     OW 7280   2.093   2.054   3.156
 2382SOL    HW1 7281   2.061   2.056   3.245
 2382SOL    HW2 7282   2.086   1.962   3.129
 2383SOL     OW 7283   1.835   3.226   3.233
 2383SOL    HW1 7284   1.882   3.196   3.156
 2383SOL    HW2 7285   1.900   3.224   3.303
 2384SOL     OW 7286   3.655   2.776   3.871
 2384SOL    HW1 7287   3.666   2.683   3.892
 2384SOL    HW2 7288   3.569   2.799   3.906
 2385SOL     OW 7289   3.596   2.206   2.240
 2385SOL    HW1 7290   3.586   2.122   2.284
 2385SOL    HW2 7291   3.525   2.207   2.175
 2386SOL     OW 7292   2.820   3.404   3.611
 2386SOL    HW1 7293   2.904   3.410   3.655
 2386SOL    HW2 7294   2.834   3.447   3.527
 2387SOL     OW 7295   3.802   3.301   3.489
 2387SOL    HW1 7296   3.770   3.211   3.484
 2387SOL    HW2 7297   3.797   3.332   3.398
 2388SOL     OW 7298   2.109   2.779   3.574
 2388SOL    HW1 7299   2.089   2.695   3.616
 2388SOL    HW2 7300   2.153   2.754   3.493
 2389SOL     OW 7301   3.508   2.086   1.868
 2389SOL    HW1 7302   3.460   2.128   1.939
 2389SOL    HW2 7303   3.440   2.054   1.809
 2390SOL     OW 7304   3.113   2.703   1.868
 2390SOL    HW1 7305   3.058   2.770   1.908
 2390SOL    HW2 7306   3.099   2.714   1.774
 2391SOL     OW 7307   2.894   2.304   3.491
 2391SOL    HW1 7308   2.921   2.223   3.450
 2391SOL    HW2 7309   2.816   2.331   3.444
 2392SOL     OW 7310   2.966   2.070   3.358
 2392SOL    HW1 7311   3.015   2.118   3.291
 2392SOL    HW2 7312   2.897   2.026   3.309
 2393SOL     OW 7313   1.858   3.194   2.071
 2393SOL    HW1 7314   1.879   3.102   2.081
 2393SOL    HW2 7315   1.768   3.195   2.037
 2394SOL     OW 7316   1.904   3.646   2.726
 2394SOL    HW1 7317   1.853   3.649   2.806
 2394SOL    HW2 7318   1.870   3.571   2.678
 2395SOL     OW 7319   2.333   3.419   2.793
 2395SOL    HW1 7320   2.282   3.499   2.783
 2395SOL    HW2 7321   2.343   3.385   2.704
 2396SOL     OW 7322   2.882   2.618   3.140
 2396SOL    HW1 7323   2.936   2.588   3.213
 2396SOL    HW2 7324   2.848   2.538   3.100
 2397SOL     OW 7325   2.037   2.502   3.599
 2397SOL    HW1 7326   2.096   2.436   3.561
 2397SOL    HW2 7327   1.985   2.533   3.525
 2398SOL     OW 7328   3.242   2.883   3.470
 2398SOL    HW1 7329   3.172   2.938   3.506
 2398SOL    HW2 7330   3.268   2.826   3.542
 2399SOL     OW 7331   3.521   2.483   3.027
 2399SOL    HW1 7332   3.506   2.430   3.106
 2399SOL    HW2 7333   3.439   2.475   2.977
 2400SOL     OW 7334   2.204   3.419   3.682
 2400SOL    HW1 7335   2.124   3.451   3.725
 2400SOL    HW2 7336   2.220   3.481   3.611
 2401SOL     OW 7337   2.838   3.554   3.371
 2401SOL    HW1 7338   2.828   3.639   3.328
 2401SOL    HW2 7339   2.791   3.493   3.313
 2402SOL     OW 7340   2.243   2.432   2.181
 2402SOL    HW1 7341   2.333   2.423   2.212
 2402SOL    HW2 7342   2.207   2.505   2.232
 2403SOL     OW 7343   2.007   3.203   3.445
 2403SOL    HW1 7344   1.992   3.132   3.506
 2403SOL    HW2 7345   2.102   3.210   3.438
 2404SOL     OW 7346   3.236   2.976   3.032
 2404SOL    HW1 7347   3.331   2.973   3.021
 2404SOL    HW2 7348   3.206   2.891   2.999
 2405SOL     OW 7349   3.015   2.865   2.209
 2405SOL    HW1 7350   2.950   2.890   2.275
 2405SOL    HW2 7351   2.981   2.899   2.127
 2406SOL     OW 7352   3.603   3.629   2.957
 2406SOL    HW1 7353   3.582   3.666   3.042
 2406SOL    HW2 7354   3.585   3.535   2.966
 2407SOL     OW 7355   3.215   3.510   3.047
 2407SOL    HW1 7356   3.251   3.579   2.990
 2407SOL    HW2 7357   3.141   3.476   2.998
 2408SOL     OW 7358   1.976   3.167   3.003
 2408SOL    HW1 7359   2.066   3.201   3.004
 2408SOL    HW2 7360   1.983   3.085   2.954
 2409SOL     OW 7361   2.558   3.485   3.627
 2409SOL    HW1 7362   2.652   3.467   3.630
 2409SOL    HW2 7363   2.522   3.417   3.570
 2410SOL     OW 7364   3.558   1.972   2.397
 2410SOL    HW1 7365   3.583   1.993   2.487
 2410SOL    HW2 7366   3.587   1.881   2.385
 2411SOL     OW 7367   3.193   3.515   2.321
 2411SOL    HW1 7368   3.147   3.432   2.335
 2411SOL    HW2 7369   3.186   3.560   2.405
 2412SOL     OW 7370   2.021   3.847   3.698
 2412SOL    HW1 7371   1.942   3.901   3.700
 2412SOL    HW2 7372   2.049   3.842   3.789
 2413SOL     OW 7373   2.697   3.112   3.257
 2413SOL    HW1 7374   2.778   3.159   3.238
 2413SOL    HW2 7375   2.725   3.022   3.271
 2414SOL     OW 7376   2.543   3.480   2.062
 2414SOL    HW1 7377   2.621   3.514   2.107
 2414SOL    HW2 7378   2.470   3.529   2.100
 2415SOL     OW 7379   3.491   3.723   3.187
 2415SOL    HW1 7380   3.442   3.670   3.250
 2415SOL    HW2 7381   3.483   3.812   3.220
 2416SOL     OW 7382   3.681   2.044   2.649
 2416SOL    HW1 7383   3.737   2.063   2.724
 2416SOL    HW2 7384   3.712   2.103   2.580
 2417SOL     OW 7385   3.091   3.476   1.919
 2417SOL    HW1 7386   3.062   3.533   1.991
 2417SOL    HW2 7387   3.012   3.460   1.868
 2418SOL     OW 7388   2.747   2.837   3.234
 2418SOL    HW1 7389   2.688   2.782   3.286
 2418SOL    HW2 7390   2.812   2.776   3.198
 2419SOL     OW 7391   3.368   3.436   1.918
 2419SOL    HW1 7392   3.397   3.438   1.827
 2419SOL    HW2 7393   3.274   3.451   1.913
 2420SOL     OW 7394   2.287   3.220   3.397
 2420SOL    HW1 7395   2.376   3.246   3.419
 2420SOL    HW2 7396   2.278   3.132   3.433
 2421SOL     OW 7397   3.539   3.146   3.163
 2421SOL    HW1 7398   3.608   3.147   3.229
 2421SOL    HW2 7399   3.482   3.219   3.188
 2422SOL     OW 7400   2.886   2.113   2.831
 2422SOL    HW1 7401   2.879   2.038   2.890
 2422SOL    HW2 7402   2.857   2.081   2.746
 2423SOL     OW 7403   2.525   3.240   2.378
 2423SOL    HW1 7404   2.606   3.291   2.381
 2423SOL    HW2 7405   2.534   3.183   2.302
 2424SOL     OW 7406   3.497   2.320   3.246
 2424SOL    HW1 7407   3.410   2.352   3.271
 2424SOL    HW2 7408   3.499   2.230   3.279
 2425SOL     OW 7409   2.133   3.182   2.158
 2425SOL    HW1 7410   2.046   3.218   2.141
 2425SOL    HW2 7411   2.125   3.089   2.141
 2426SOL     OW 7412   1.909   2.967   3.590
 2426SOL    HW1 7413   1.982   2.905   3.590
 2426SOL    HW2 7414   1.839   2.922   3.637
 2427SOL     OW 7415   2.552   2.000   3.431
 2427SOL    HW1 7416   2.579   2.016   3.521
 2427SOL    HW2 7417   2.633   2.000   3.380
 2428SOL     OW 7418   1.956   2.181   1.937
 2428SOL    HW1 7419   1.911   2.112   1.986
 2428SOL    HW2 7420   2.015   2.134   1.879
 2429SOL     OW 7421   3.360   2.665   3.326
 2429SOL    HW1 7422   3.321   2.744   3.364
 2429SOL    HW2 7423   3.428   2.698   3.268
 2430SOL     OW 7424   1.883   1.956   2.081
 2430SOL    HW1 7425   1.845   1.893   2.144
 2430SOL    HW2 7426   1.974   1.929   2.072
 2431SOL     OW 7427   3.105   3.239   2.067
 2431SOL    HW1 7428   3.103   3.318   2.013
 2431SOL    HW2 7429   3.165   3.180   2.021
 2432SOL     OW 7430   2.559   2.666   3.346
 2432SOL    HW1 7431   2.536   2.720   3.422
 2432SOL    HW2 7432   2.502   2.699   3.276
 2433SOL     OW 7433   3.343   3.694   2.890
 2433SOL    HW1 7434   3.433   3.669   2.910
 2433SOL    HW2 7435   3.351   3.763   2.824
 2434SOL     OW 7436   2.582   2.343   3.612
 2434SOL    HW1 7437   2.663   2.343   3.664
 2434SOL    HW2 7438   2.609   2.367   3.524
 2435SOL     OW 7439   3.433   3.087   3.461
 2435SOL    HW1 7440   3.388   3.005   3.481
 2435SOL    HW2 7441   3.382   3.125   3.389
 2436SOL     OW 7442   2.246   3.583   3.457
 2436SOL    HW1 7443   2.157   3.618   3.463
 2436SOL    HW2 7444   2.248   3.537   3.373
 2437SOL     OW 7445   3.553   2.735   3.144
 2437SOL    HW1 7446   3.538   2.804   3.080
 2437SOL    HW2 7447   3.551   2.654   3.094
 2438SOL     OW 7448   3.085   2.277   2.426
 2438SOL    HW1 7449   3.146   2.268   2.352
 2438SOL    HW2 7450   2.999   2.288   2.385
 2439SOL     OW 7451   3.674   2.400   3.563
 2439SOL    HW1 7452   3.760   2.401   3.603
 2439SOL    HW2 7453   3.691   2.392   3.469
 2440SOL     OW 7454   3.700   2.784   3.375
 2440SOL    HW1 7455   3.769   2.718   3.375
 2440SOL    HW2 7456   3.649   2.765   3.296
 2441SOL     OW 7457   2.714   3.283   1.977
 2441SOL    HW1 7458   2.656   3.353   2.008
 2441SOL    HW2 7459   2.775   3.327   1.918
 2442SOL     OW 7460   2.495   3.758   2.956
 2442SOL    HW1 7461   2.479   3.691   3.023
 2442SOL    HW2 7462   2.591   3.764   2.951
 2443SOL     OW 7463   2.988   2.936   1.943
 2443SOL    HW1 7464   3.055   3.004   1.933
 2443SOL    HW2 7465   2.930   2.949   1.868
 2444SOL     OW 7466   3.636   3.416   2.691
 2444SOL    HW1 7467   3.724   3.383   2.710
 2444SOL    HW2 7468   3.590   3.412   2.775
 2445SOL     OW 7469   2.289   3.172   3.746
 2445SOL    HW1 7470   2.327   3.190   3.833
 2445SOL    HW2 7471   2.258   3.257   3.715
 2446SOL     OW 7472   2.551   3.248   3.458
 2446SOL    HW1 7473   2.587   3.212   3.540
 2446SOL    HW2 7474   2.601   3.204   3.389
 2447SOL     OW 7475   3.677   2.043   3.124
 2447SOL    HW1 7476   3.610   2.052   3.192
 2447SOL    HW2 7477   3.670   2.124   3.073
 2448SOL     OW 7478   3.527   3.365   2.954
 2448SOL    HW1 7479   3.483   3.362   3.039
 2448SOL    HW2 7480   3.596   3.298   2.960
 2449SOL     OW 7481   2.170   2.311   3.185
 2449SOL    HW1 7482   2.192   2.345   3.098
 2449SOL    HW2 7483   2.160   2.217   3.171
 2450SOL     OW 7484   2.715   3.408   2.653
 2450SOL    HW1 7485   2.736   3.396   2.560
 2450SOL    HW2 7486   2.764   3.486   2.679
 2451SOL     OW 7487   3.235   2.120   2.954
 2451SOL    HW1 7488   3.303   2.070   2.908
 2451SOL    HW2 7489   3.192   2.169   2.884
 2452SOL     OW 7490   2.856   1.861   2.963
 2452SOL    HW1 7491   2.935   1.808   2.971
 2452SOL    HW2 7492   2.812   1.826   2.885
 2453SOL     OW 7493   2.562   3.114   2.138
 2453SOL    HW1 7494   2.488   3.131   2.080
 2453SOL    HW2 7495   2.637   3.152   2.093
 2454SOL     OW 7496   2.469   3.588   3.177
 2454SOL    HW1 7497   2.393   3.531   3.190
 2454SOL    HW2 7498   2.544   3.530   3.182
 2455SOL     OW 7499   3.185   1.907   2.043
 2455SOL    HW1 7500   3.203   1.940   2.131
 2455SOL    HW2 7501   3.101   1.946   2.020
 2456SOL     OW 7502   3.033   2.486   2.590
 2456SOL    HW1 7503   3.050   2.416   2.527
 2456SOL    HW2 7504   2.952   2.527   2.560
 2457SOL     OW 7505   3.420   1.996   2.756
 2457SOL    HW1 7506   3.512   2.007   2.733
 2457SOL    HW2 7507   3.374   2.064   2.706
 2458SOL     OW 7508   1.955   2.941   2.060
 2458SOL    HW1 7509   2.007   2.869   2.094
 2458SOL    HW2 7510   1.902   2.901   1.990
 2459SOL     OW 7511   2.764   3.582   2.194
 2459SOL    HW1 7512   2.729   3.662   2.233
 2459SOL    HW2 7513   2.852   3.605   2.165
 2460SOL     OW 7514   2.093   2.532   3.865
 2460SOL    HW1 7515   2.012   2.511   3.912
 2460SOL    HW2 7516   2.071   2.521   3.772
 2461SOL     OW 7517   2.038   2.194   4.691
 2461SOL    HW1 7518   2.081   2.205   4.606
 2461SOL    HW2 7519   1.975   2.123   4.677
 2462SOL     OW 7520   1.854   2.237   4.436
 2462SOL    HW1 7521   1.946   2.222   4.413
 2462SOL    HW2 7522   1.836   2.177   4.509
 2463SOL     OW 7523   2.477   3.113   4.905
 2463SOL    HW1 7524   2.518   3.047   4.961
 2463SOL    HW2 7525   2.521   3.104   4.821
 2464SOL     OW 7526   3.450   3.391   4.363
 2464SOL    HW1 7527   3.421   3.384   4.454
 2464SOL    HW2 7528   3.475   3.302   4.339
 2465SOL     OW 7529   2.949   2.568   4.421
 2465SOL    HW1 7530   3.034   2.530   4.444
 2465SOL    HW2 7531   2.964   2.663   4.427
 2466SOL     OW 7532   3.644   2.503   3.942
 2466SOL    HW1 7533   3.616   2.424   3.989
 2466SOL    HW2 7534   3.585   2.509   3.867
 2467SOL     OW 7535   2.602   3.062   4.668
 2467SOL    HW1 7536   2.652   3.136   4.635
 2467SOL    HW2 7537   2.634   2.987   4.618
 2468SOL     OW 7538   2.552   2.937   4.284
 2468SOL    HW1 7539   2.613   2.930   4.358
 2468SOL    HW2 7540   2.468   2.957   4.324
 2469SOL     OW 7541   2.258   3.215   4.770
 2469SOL    HW1 7542   2.332   3.177   4.818
 2469SOL    HW2 7543   2.294   3.294   4.729
 2470SOL     OW 7544   3.430   2.204   4.358
 2470SOL    HW1 7545   3.517   2.243   4.352
 2470SOL    HW2 7546   3.436   2.124   4.305
 2471SOL     OW 7547   2.059   3.545   4.160
 2471SOL    HW1 7548   2.064   3.465   4.213
 2471SOL    HW2 7549   2.078   3.616   4.221
 2472SOL     OW 7550   2.109   3.300   4.284
 2472SOL    HW1 7551   2.196   3.291   4.323
 2472SOL    HW2 7552   2.117   3.262   4.197
 2473SOL     OW 7553   2.064   2.897   4.483
 2473SOL    HW1 7554   2.015   2.941   4.414
 2473SOL    HW2 7555   2.005   2.829   4.515
 2474SOL     OW 7556   2.415   2.785   3.812
 2474SOL    HW1 7557   2.466   2.824   3.883
 2474SOL    HW2 7558   2.324   2.792   3.841
 2475SOL     OW 7559   1.951   2.510   4.417
 2475SOL    HW1 7560   2.042   2.486   4.399
 2475SOL    HW2 7561   1.905   2.426   4.422
 2476SOL     OW 7562   3.657   3.609   3.945
 2476SOL    HW1 7563   3.739   3.659   3.950
 2476SOL    HW2 7564   3.674   3.542   3.879
 2477SOL     OW 7565   1.942   3.443   3.792
 2477SOL    HW1 7566   1.929   3.355   3.827
 2477SOL    HW2 7567   1.901   3.440   3.705
 2478SOL     OW 7568   3.604   2.678   4.406
 2478SOL    HW1 7569   3.602   2.746   4.340
 2478SOL    HW2 7570   3.588   2.596   4.358
 2479SOL     OW 7571   3.595   2.855   4.200
 2479SOL    HW1 7572   3.593   2.949   4.217
 2479SOL    HW2 7573   3.529   2.842   4.131
 2480SOL     OW 7574   2.356   3.254   4.403
 2480SOL    HW1 7575   2.359   3.288   4.493
 2480SOL    HW2 7576   2.346   3.159   4.414
 2481SOL     OW 7577   2.613   1.812   4.296
 2481SOL    HW1 7578   2.588   1.811   4.389
 2481SOL    HW2 7579   2.539   1.854   4.252
 2482SOL     OW 7580   2.032   2.731   0.060
 2482SOL    HW1 7581   2.069   2.764   0.142
 2482SOL    HW2 7582   2.107   2.698   0.011
 2483SOL     OW 7583   3.415   2.822   4.001
 2483SOL    HW1 7584   3.340   2.767   4.023
 2483SOL    HW2 7585   3.379   2.891   3.945
 2484SOL     OW 7586   3.377   3.321   4.625
 2484SOL    HW1 7587   3.323   3.373   4.684
 2484SOL    HW2 7588   3.331   3.238   4.618
 2485SOL     OW 7589   3.650   3.579   4.320
 2485SOL    HW1 7590   3.610   3.653   4.275
 2485SOL    HW2 7591   3.579   3.517   4.335
 2486SOL     OW 7592   2.512   2.501   4.015
 2486SOL    HW1 7593   2.589   2.554   3.997
 2486SOL    HW2 7594   2.466   2.547   4.085
 2487SOL     OW 7595   3.108   2.273   4.668
 2487SOL    HW1 7596   3.166   2.208   4.709
 2487SOL    HW2 7597   3.121   2.261   4.574
 2488SOL     OW 7598   3.385   3.559   3.950
 2488SOL    HW1 7599   3.480   3.574   3.951
 2488SOL    HW2 7600   3.369   3.513   3.868
 2489SOL     OW 7601   2.955   2.561   4.136
 2489SOL    HW1 7602   2.939   2.549   4.230
 2489SOL    HW2 7603   2.872   2.595   4.102
 2490SOL     OW 7604   1.888   2.717   4.590
 2490SOL    HW1 7605   1.840   2.679   4.664
 2490SOL    HW2 7606   1.906   2.643   4.533
 2491SOL     OW 7607   2.774   2.172   3.991
 2491SOL    HW1 7608   2.780   2.216   3.906
 2491SOL    HW2 7609   2.736   2.086   3.971
 2492SOL     OW 7610   3.271   3.093   4.310
 2492SOL    HW1 7611   3.365   3.099   4.294
 2492SOL    HW2 7612   3.249   3.001   4.292
 2493SOL     OW 7613   2.375   2.024   4.657
 2493SOL    HW1 7614   2.319   2.031   4.735
 2493SOL    HW2 7615   2.382   2.114   4.625
 2494SOL     OW 7616   2.870   3.252   4.041
 2494SOL    HW1 7617   2.945   3.259   4.100
 2494SOL    HW2 7618   2.828   3.338   4.045
 2495SOL     OW 7619   2.212   3.655   4.566
 2495SOL    HW1 7620   2.136   3.652   4.624
 2495SOL    HW2 7621   2.259   3.734   4.593
 2496SOL     OW 7622   3.645   2.959   4.500
 2496SOL    HW1 7623   3.594   2.975   4.579
 2496SOL    HW2 7624   3.656   2.864   4.497
 2497SOL     OW 7625   2.156   2.791   3.925
 2497SOL    HW1 7626   2.070   2.831   3.939
 2497SOL    HW2 7627   2.137   2.699   3.908
 2498SOL     OW 7628   3.322   2.642   4.438
 2498SOL    HW1 7629   3.417   2.656   4.448
 2498SOL    HW2 7630   3.297   2.594   4.517
 2499SOL     OW 7631   2.996   3.602   3.961
 2499SOL    HW1 7632   3.012   3.560   4.045
 2499SOL    HW2 7633   3.056   3.676   3.959
 2500SOL     OW 7634   3.467   3.188   3.710
 2500SOL    HW1 7635   3.559   3.179   3.732
 2500SOL    HW2 7636   3.461   3.159   3.619
 2501SOL     OW 7637   2.260   3.639   3.982
 2501SOL    HW1 7638   2.198   3.582   4.028
 2501SOL    HW2 7639   2.208   3.716   3.958
 2502SOL     OW 7640   3.173   1.961   4.137
 2502SOL    HW1 7641   3.115   2.037   4.148
 2502SOL    HW2 7642   3.186   1.953   4.043
 2503SOL     OW 7643   2.062   3.701   4.980
 2503SOL    HW1 7644   1.993   3.768   4.983
 2503SOL    HW2 7645   2.049   3.657   4.896
 2504SOL     OW 7646   2.804   3.525   4.626
 2504SOL    HW1 7647   2.788   3.603   4.680
 2504SOL    HW2 7648   2.731   3.523   4.564
 2505SOL     OW 7649   2.390   2.626   4.226
 2505SOL    HW1 7650   2.450   2.653   4.296
 2505SOL    HW2 7651   2.338   2.704   4.207
 2506SOL     OW 7652   2.352   1.961   3.797
 2506SOL    HW1 7653   2.439   1.999   3.790
 2506SOL    HW2 7654   2.313   1.973   3.710
 2507SOL     OW 7655   2.756   3.260   4.553
 2507SOL    HW1 7656   2.795   3.333   4.601
 2507SOL    HW2 7657   2.701   3.302   4.486
 2508SOL     OW 7658   2.679   2.301   4.661
 2508SOL    HW1 7659   2.658   2.376   4.717
 2508SOL    HW2 7660   2.694   2.340   4.575
 2509SOL     OW 7661   2.388   1.927   4.189
 2509SOL    HW1 7662   2.369   2.017   4.163
 2509SOL    HW2 7663   2.347   1.874   4.121
 2510SOL     OW 7664   3.310   2.994   3.821
 2510SOL    HW1 7665   3.363   3.066   3.787
 2510SOL    HW2 7666   3.232   3.036   3.856
 2511SOL     OW 7667   2.070   2.082   3.982
 2511SOL    HW1 7668   2.138   2.098   4.047
 2511SOL    HW2 7669   2.098   2.132   3.905
 2512SOL     OW 7670   2.843   1.974   4.283
 2512SOL    HW1 7671   2.871   1.951   4.372
 2512SOL    HW2 7672   2.759   1.929   4.272
 2513SOL     OW 7673   3.075   3.515   4.604
 2513SOL    HW1 7674   2.980   3.516   4.610
 2513SOL    HW2 7675   3.095   3.571   4.529
 2514SOL     OW 7676   2.303   2.986   4.387
 2514SOL    HW1 7677   2.231   2.946   4.436
 2514SOL    HW2 7678   2.279   2.976   4.295
 2515SOL     OW 7679   3.094   3.665   4.358
 2515SOL    HW1 7680   3.151   3.739   4.340
 2515SOL    HW2 7681   3.132   3.592   4.308
 2516SOL     OW 7682   2.814   2.307   3.752
 2516SOL    HW1 7683   2.858   2.298   3.668
 2516SOL    HW2 7684   2.880   2.349   3.809
 2517SOL     OW 7685   2.708   2.436   4.429
 2517SOL    HW1 7686   2.795   2.476   4.422
 2517SOL    HW2 7687   2.693   2.395   4.344
 2518SOL     OW 7688   2.926   1.894   4.530
 2518SOL    HW1 7689   2.923   1.973   4.584
 2518SOL    HW2 7690   2.878   1.829   4.580
 2519SOL     OW 7691   3.240   3.087   4.582
 2519SOL    HW1 7692   3.146   3.079   4.593
 2519SOL    HW2 7693   3.253   3.090   4.487
 2520SOL     OW 7694   3.258   2.507   4.669
 2520SOL    HW1 7695   3.204   2.429   4.672
 2520SOL    HW2 7696   3.336   2.485   4.720
 2521SOL     OW 7697   3.778   2.659   4.136
 2521SOL    HW1 7698   3.725   2.733   4.162
 2521SOL    HW2 7699   3.721   2.606   4.082
 2522SOL     OW 7700   2.347   3.309   3.980
 2522SOL    HW1 7701   2.386   3.386   3.937
 2522SOL    HW2 7702   2.401   3.296   4.058
 2523SOL     OW 7703   3.545   3.127   4.310
 2523SOL    HW1 7704   3.562   3.072   4.387
 2523SOL    HW2 7705   3.632   3.157   4.282
 2524SOL     OW 7706   3.266   2.383   3.825
 2524SOL    HW1 7707   3.337   2.439   3.796
 2524SOL    HW2 7708   3.308   2.299   3.845
 2525SOL     OW 7709   2.297   2.178   4.117
 2525SOL    HW1 7710   2.308   2.239   4.190
 2525SOL    HW2 7711   2.310   2.233   4.039
 2526SOL     OW 7712   3.014   3.158   4.837
 2526SOL    HW1 7713   2.938   3.160   4.895
 2526SOL    HW2 7714   3.067   3.086   4.870
 2527SOL     OW 7715   3.474   2.988   4.704
 2527SOL    HW1 7716   3.385   3.013   4.679
 2527SOL    HW2 7717   3.462   2.919   4.769
 2528SOL     OW 7718   2.568   2.894   4.016
 2528SOL    HW1 7719   2.590   2.981   3.984
 2528SOL    HW2 7720   2.556   2.905   4.111
 2529SOL     OW 7721   2.281   2.637   4.953
 2529SOL    HW1 7722   2.322   2.607   5.034
 2529SOL    HW2 7723   2.347   2.690   4.910
 2530SOL     OW 7724   2.226   2.954   4.134
 2530SOL    HW1 7725   2.186   3.035   4.101
 2530SOL    HW2 7726   2.214   2.891   4.063
 2531SOL     OW 7727   2.402   2.297   4.587
 2531SOL    HW1 7728   2.355   2.349   4.653
 2531SOL    HW2 7729   2.492   2.291   4.621
 2532SOL     OW 7730   3.111   3.269   4.173
 2532SOL    HW1 7731   3.157   3.352   4.184
 2532SOL    HW2 7732   3.157   3.208   4.231
 2533SOL     OW 7733   3.160   3.397   4.833
 2533SOL    HW1 7734   3.132   3.448   4.757
 2533SOL    HW2 7735   3.117   3.312   4.822
 2534SOL     OW 7736   3.519   2.469   4.251
 2534SOL    HW1 7737   3.529   2.401   4.184
 2534SOL    HW2 7738   3.427   2.466   4.276
 2535SOL     OW 7739   2.498   2.773   4.839
 2535SOL    HW1 7740   2.552   2.825   4.899
 2535SOL    HW2 7741   2.488   2.828   4.762
 2536SOL     OW 7742   3.231   2.705   4.858
 2536SOL    HW1 7743   3.324   2.725   4.861
 2536SOL    HW2 7744   3.221   2.646   4.783
 2537SOL     OW 7745   3.008   2.407   3.910
 2537SOL    HW1 7746   2.998   2.447   3.997
 2537SOL    HW2 7747   3.101   2.388   3.902
 2538SOL     OW 7748   2.192   2.056   4.870
 2538SOL    HW1 7749   2.132   2.039   4.944
 2538SOL    HW2 7750   2.141   2.110   4.810
 2539SOL     OW 7751   2.052   3.126   4.943
 2539SOL    HW1 7752   2.128   3.168   4.904
 2539SOL    HW2 7753   1.997   3.102   4.868
 2540SOL     OW 7754   2.599   2.512   4.817
 2540SOL    HW1 7755   2.678   2.517   4.872
 2540SOL    HW2 7756   2.565   2.602   4.817
 2541SOL     OW 7757   2.186   1.919   4.386
 2541SOL    HW1 7758   2.271   1.918   4.341
 2541SOL    HW2 7759   2.131   1.859   4.335
 2542SOL     OW 7760   3.554   2.271   4.057
 2542SOL    HW1 7761   3.616   2.201   4.075
 2542SOL    HW2 7762   3.488   2.231   4.000
 2543SOL     OW 7763   2.841   2.714   4.720
 2543SOL    HW1 7764   2.872   2.649   4.657
 2543SOL    HW2 7765   2.794   2.779   4.666
 2544SOL     OW 7766   3.398   2.148   3.865
 2544SOL    HW1 7767   3.340   2.071   3.870
 2544SOL    HW2 7768   3.451   2.132   3.786
 2545SOL     OW 7769   3.090   2.648   3.784
 2545SOL    HW1 7770   3.003   2.684   3.768
 2545SOL    HW2 7771   3.076   2.555   3.798
 2546SOL     OW 7772   2.963   3.076   4.582
 2546SOL    HW1 7773   2.973   3.101   4.674
 2546SOL    HW2 7774   2.892   3.131   4.549
 2547SOL     OW 7775   2.291   2.626   4.554
 2547SOL    HW1 7776   2.267   2.562   4.620
 2547SOL    HW2 7777   2.223   2.693   4.558
 2548SOL     OW 7778   2.225   2.449   4.751
 2548SOL    HW1 7779   2.237   2.503   4.829
 2548SOL    HW2 7780   2.158   2.385   4.775
 2549SOL     OW 7781   3.007   2.124   0.207
 2549SOL    HW1 7782   2.992   2.135   0.301
 2549SOL    HW2 7783   2.929   2.079   0.175
 2550SOL     OW 7784   1.879   3.187   3.875
 2550SOL    HW1 7785   1.789   3.208   3.850
 2550SOL    HW2 7786   1.880   3.091   3.882
 2551SOL     OW 7787   1.990   3.631   4.725
 2551SOL    HW1 7788   1.908   3.677   4.708
 2551SOL    HW2 7789   1.971   3.540   4.706
 2552SOL     OW 7790   2.367   3.433   4.624
 2552SOL    HW1 7791   2.428   3.492   4.669
 2552SOL    HW2 7792   2.296   3.489   4.593
 2553SOL     OW 7793   2.857   2.724   4.990
 2553SOL    HW1 7794   2.848   2.631   5.009
 2553SOL    HW2 7795   2.860   2.729   4.895
 2554SOL     OW 7796   1.839   2.353   4.820
 2554SOL    HW1 7797   1.889   2.365   4.901
 2554SOL    HW2 7798   1.892   2.291   4.769
 2555SOL     OW 7799   2.670   2.342   4.180
 2555SOL    HW1 7800   2.710   2.274   4.125
 2555SOL    HW2 7801   2.609   2.388   4.122
 2556SOL     OW 7802   3.479   2.490   4.837
 2556SOL    HW1 7803   3.464   2.444   4.919
 2556SOL    HW2 7804   3.562   2.454   4.805
 2557SOL     OW 7805   2.470   2.294   4.923
 2557SOL    HW1 7806   2.505   2.371   4.879
 2557SOL    HW2 7807   2.543   2.260   4.974
 2558SOL     OW 7808   2.303   2.358   3.903
 2558SOL    HW1 7809   2.383   2.404   3.929
 2558SOL    HW2 7810   2.237   2.427   3.899
 2559SOL     OW 7811   2.016   3.090   0.206
 2559SOL    HW1 7812   2.025   2.997   0.225
 2559SOL    HW2 7813   2.030   3.098   0.112
 2560SOL     OW 7814   3.151   2.949   4.943
 2560SOL    HW1 7815   3.101   2.927   5.021
 2560SOL    HW2 7816   3.171   2.865   4.902
 2561SOL     OW 7817   3.174   2.695   4.043
 2561SOL    HW1 7818   3.103   2.646   4.085
 2561SOL    HW2 7819   3.153   2.692   3.950
 2562SOL     OW 7820   3.589   3.596   4.786
 2562SOL    HW1 7821   3.599   3.565   4.876
 2562SOL    HW2 7822   3.602   3.518   4.732
 2563SOL     OW 7823   2.033   3.112   4.653
 2563SOL    HW1 7824   2.115   3.146   4.688
 2563SOL    HW2 7825   2.060   3.042   4.592
 2564SOL     OW 7826   3.430   1.968   4.233
 2564SOL    HW1 7827   3.453   1.879   4.259
 2564SOL    HW2 7828   3.341   1.960   4.198
 2565SOL     OW 7829   3.257   3.499   4.194
 2565SOL    HW1 7830   3.327   3.471   4.253
 2565SOL    HW2 7831   3.302   3.521   4.112
 2566SOL     OW 7832   3.206   2.831   4.282
 2566SOL    HW1 7833   3.248   2.763   4.335
 2566SOL    HW2 7834   3.196   2.790   4.196
 2567SOL     OW 7835   2.499   3.531   3.895
 2567SOL    HW1 7836   2.418   3.580   3.908
 2567SOL    HW2 7837   2.506   3.521   3.800
 2568SOL     OW 7838   3.494   3.732   0.100
 2568SOL    HW1 7839   3.516   3.679   0.176
 2568SOL    HW2 7840   3.428   3.682   0.053
 2569SOL     OW 7841   3.715   2.037   4.549
 2569SOL    HW1 7842   3.720   2.091   4.471
 2569SOL    HW2 7843   3.622   2.026   4.565
 2570SOL     OW 7844   2.119   2.186   4.424
 2570SOL    HW1 7845   2.191   2.236   4.386
 2570SOL    HW2 7846   2.145   2.094   4.412
 2571SOL     OW 7847   3.059   3.464   3.730
 2571SOL    HW1 7848   3.034   3.510   3.810
 2571SOL    HW2 7849   3.070   3.533   3.665
 2572SOL     OW 7850   2.668   2.927  -0.006
 2572SOL    HW1 7851   2.719   3.006   0.010
 2572SOL    HW2 7852   2.730   2.855   0.007
 2573SOL     OW 7853   2.734   2.675   4.011
 2573SOL    HW1 7854   2.679   2.753   4.022
 2573SOL    HW2 7855   2.778   2.689   3.927
 2574SOL     OW 7856   3.334   3.426   3.717
 2574SOL    HW1 7857   3.240   3.409   3.727
 2574SOL    HW2 7858   3.375   3.340   3.721
 2575SOL     OW 7859   2.974   2.842   4.436
 2575SOL    HW1 7860   2.975   2.921   4.489
 2575SOL    HW2 7861   3.049   2.851   4.377
 2576SOL     OW 7862   2.880   2.111   4.703
 2576SOL    HW1 7863   2.953   2.173   4.697
 2576SOL    HW2 7864   2.802   2.164   4.690
 2577SOL     OW 7865   2.521   3.292   4.185
 2577SOL    HW1 7866   2.469   3.276   4.264
 2577SOL    HW2 7867   2.588   3.354   4.213
 2578SOL     OW 7868   3.687   2.224   0.260
 2578SOL    HW1 7869   3.762   2.198   0.312
 2578SOL    HW2 7870   3.688   2.166   0.184
 2579SOL     OW 7871   2.111   3.186   4.040
 2579SOL    HW1 7872   2.039   3.193   3.977
 2579SOL    HW2 7873   2.184   3.232   3.999
 2580SOL     OW 7874   1.874   2.243   3.734
 2580SOL    HW1 7875   1.854   2.336   3.743
 2580SOL    HW2 7876   1.970   2.239   3.739
 2581SOL     OW 7877   1.808   2.027   4.045
 2581SOL    HW1 7878   1.752   2.077   3.985
 2581SOL    HW2 7879   1.897   2.054   4.023
 2582SOL     OW 7880   3.107   3.130   3.932
 2582SOL    HW1 7881   3.124   3.175   4.014
 2582SOL    HW2 7882   3.013   3.142   3.917
 2583SOL     OW 7883   3.382   3.784   4.764
 2583SOL    HW1 7884   3.452   3.719   4.777
 2583SOL    HW2 7885   3.377   3.796   4.669
 2584SOL     OW 7886   3.501   2.761   4.879
 2584SOL    HW1 7887   3.591   2.788   4.896
 2584SOL    HW2 7888   3.506   2.667   4.860
 2585SOL     OW 7889   2.998   2.168   4.178
 2585SOL    HW1 7890   2.940   2.105   4.220
 2585SOL    HW2 7891   2.947   2.205   4.106
 2586SOL     OW 7892   2.544   2.653   4.457
 2586SOL    HW1 7893   2.460   2.637   4.499
 2586SOL    HW2 7894   2.588   2.569   4.457
 2587SOL     OW 7895   3.629   2.775   0.326
 2587SOL    HW1 7896   3.568   2.793   0.255
 2587SOL    HW2 7897   3.653   2.683   0.314
 2588SOL     OW 7898   2.688   3.172   3.688
 2588SOL    HW1 7899   2.737   3.254   3.680
 2588SOL    HW2 7900   2.660   3.170   3.780
 2589SOL     OW 7901   2.507   3.658   4.698
 2589SOL    HW1 7902   2.592   3.690   4.728
 2589SOL    HW2 7903   2.459   3.737   4.673
 2590SOL     OW 7904   2.706   2.860   4.512
 2590SOL    HW1 7905   2.789   2.846   4.467
 2590SOL    HW2 7906   2.652   2.784   4.488
 2591SOL     OW 7907   2.832   2.729   3.757
 2591SOL    HW1 7908   2.757   2.675   3.736
 2591SOL    HW2 7909   2.821   2.808   3.704
 2592SOL     OW 7910   3.818   3.518   4.527
 2592SOL    HW1 7911   3.766   3.460   4.582
 2592SOL    HW2 7912   3.758   3.547   4.459
 2593SOL     OW 7913   1.939   3.077   4.308
 2593SOL    HW1 7914   1.989   3.159   4.308
 2593SOL    HW2 7915   1.938   3.050   4.216
 2594SOL     OW 7916   3.692   2.037   0.057
 2594SOL    HW1 7917   3.782   2.036   0.023
 2594SOL    HW2 7918   3.669   1.944   0.063
 2595SOL     OW 7919   2.315   2.358   4.327
 2595SOL    HW1 7920   2.360   2.345   4.411
 2595SOL    HW2 7921   2.340   2.446   4.299
 2596SOL     OW 7922   3.649   3.355   4.657
 2596SOL    HW1 7923   3.702   3.276   4.658
 2596SOL    HW2 7924   3.559   3.323   4.650
 2597SOL     OW 7925   2.595   3.465   4.438
 2597SOL    HW1 7926   2.510   3.449   4.480
 2597SOL    HW2 7927   2.589   3.553   4.402
 2598SOL     OW 7928   3.274   2.093   4.786
 2598SOL    HW1 7929   3.323   2.102   4.868
 2598SOL    HW2 7930   3.261   1.999   4.776
 2599SOL     OW 7931   2.856   1.889   4.874
 2599SOL    HW1 7932   2.870   1.969   4.824
 2599SOL    HW2 7933   2.816   1.828   4.812
 2600SOL     OW 7934   2.633   3.155   3.962
 2600SOL    HW1 7935   2.723   3.176   3.986
 2600SOL    HW2 7936   2.579   3.196   4.029
 2601SOL     OW 7937   3.238   1.922   3.870
 2601SOL    HW1 7938   3.296   1.850   3.896
 2601SOL    HW2 7939   3.186   1.886   3.798
 2602SOL     OW 7940   3.158   2.253   4.402
 2602SOL    HW1 7941   3.249   2.238   4.377
 2602SOL    HW2 7942   3.108   2.230   4.323
 2603SOL     OW 7943   3.446   2.036   4.578
 2603SOL    HW1 7944   3.391   2.068   4.649
 2603SOL    HW2 7945   3.425   2.093   4.504
 2604SOL     OW 7946   1.913   2.895   4.027
 2604SOL    HW1 7947   1.824   2.930   4.038
 2604SOL    HW2 7948   1.918   2.823   4.090
 2605SOL     OW 7949   2.738   3.489   4.032
 2605SOL    HW1 7950   2.798   3.552   3.991
 2605SOL    HW2 7951   2.654   3.505   3.988
 2606SOL     OW 7952   2.054   4.288   0.064
 2606SOL    HW1 7953   2.147   4.267   0.076
 2606SOL    HW2 7954   2.033   4.346   0.137
 2607SOL     OW 7955   2.114   3.967   1.006
 2607SOL    HW1 7956   2.150   3.965   1.095
 2607SOL    HW2 7957   2.022   3.942   1.017
 2608SOL     OW 7958   1.960   4.111   0.559
 2608SOL    HW1 7959   2.017   4.074   0.626
 2608SOL    HW2 7960   1.887   4.050   0.553
 2609SOL     OW 7961   2.941   4.398   0.738
 2609SOL    HW1 7962   2.872   4.343   0.773
 2609SOL    HW2 7963   2.914   4.418   0.649
 2610SOL     OW 7964   3.559   4.401   0.249
 2610SOL    HW1 7965   3.481   4.375   0.297
 2610SOL    HW2 7966   3.583   4.323   0.198
 2611SOL     OW 7967   2.541   4.840   0.988
 2611SOL    HW1 7968   2.584   4.922   1.014
 2611SOL    HW2 7969   2.612   4.787   0.953
 2612SOL     OW 7970   2.714   4.503   1.846
 2612SOL    HW1 7971   2.762   4.538   1.922
 2612SOL    HW2 7972   2.623   4.530   1.861
 2613SOL     OW 7973   2.595   4.724   0.663
 2613SOL    HW1 7974   2.627   4.679   0.741
 2613SOL    HW2 7975   2.659   4.793   0.647
 2614SOL     OW 7976   2.513   4.854   1.784
 2614SOL    HW1 7977   2.490   4.775   1.833
 2614SOL    HW2 7978   2.433   4.877   1.737
 2615SOL     OW 7979   2.150   4.094   1.478
 2615SOL    HW1 7980   2.188   4.130   1.558
 2615SOL    HW2 7981   2.091   4.162   1.447
 2616SOL     OW 7982   3.445   4.114   0.765
 2616SOL    HW1 7983   3.430   4.183   0.830
 2616SOL    HW2 7984   3.362   4.106   0.719
 2617SOL     OW 7985   2.098   4.783   0.860
 2617SOL    HW1 7986   2.185   4.801   0.825
 2617SOL    HW2 7987   2.037   4.816   0.794
 2618SOL     OW 7988   2.413   4.677   0.172
 2618SOL    HW1 7989   2.464   4.713   0.244
 2618SOL    HW2 7990   2.322   4.682   0.202
 2619SOL     OW 7991   3.504   3.828   1.506
 2619SOL    HW1 7992   3.479   3.740   1.478
 2619SOL    HW2 7993   3.490   3.883   1.430
 2620SOL     OW 7994   1.964   4.387   0.535
 2620SOL    HW1 7995   1.891   4.430   0.579
 2620SOL    HW2 7996   1.951   4.294   0.551
 2621SOL     OW 7997   3.563   4.625   0.606
 2621SOL    HW1 7998   3.580   4.666   0.691
 2621SOL    HW2 7999   3.533   4.696   0.550
 2622SOL     OW 8000   3.461   4.826   0.467
 2622SOL    HW1 8001   3.390   4.840   0.529
 2622SOL    HW2 8002   3.422   4.843   0.381
 2623SOL     OW 8003   2.034   4.451   1.536
 2623SOL    HW1 8004   1.973   4.523   1.520
 2623SOL    HW2 8005   2.014   4.387   1.468
 2624SOL     OW 8006   3.174   4.914   1.441
 2624SOL    HW1 8007   3.240   4.930   1.509
 2624SOL    HW2 8008   3.151   4.822   1.451
 2625SOL     OW 8009   2.772   3.747   0.550
 2625SOL    HW1 8010   2.845   3.750   0.612
 2625SOL    HW2 8011   2.747   3.839   0.538
 2626SOL     OW 8012   2.110   4.817   1.317
 2626SOL    HW1 8013   2.156   4.736   1.293
 2626SOL    HW2 8014   2.068   4.845   1.236
 2627SOL     OW 8015   3.305   4.811   0.235
 2627SOL    HW1 8016   3.260   4.741   0.284
 2627SOL    HW2 8017   3.373   4.766   0.186
 2628SOL     OW 8018   2.249   3.896   1.771
 2628SOL    HW1 8019   2.234   3.836   1.845
 2628SOL    HW2 8020   2.327   3.861   1.728
 2629SOL     OW 8021   2.445   4.411   0.272
 2629SOL    HW1 8022   2.446   4.496   0.227
 2629SOL    HW2 8023   2.393   4.354   0.216
 2630SOL     OW 8024   3.072   3.970   0.883
 2630SOL    HW1 8025   3.135   3.972   0.955
 2630SOL    HW2 8026   2.988   3.993   0.924
 2631SOL     OW 8027   2.676   4.301   1.382
 2631SOL    HW1 8028   2.765   4.328   1.406
 2631SOL    HW2 8029   2.621   4.375   1.408
 2632SOL     OW 8030   3.271   4.194   1.686
 2632SOL    HW1 8031   3.288   4.235   1.771
 2632SOL    HW2 8032   3.176   4.186   1.683
 2633SOL     OW 8033   2.850   4.555   1.612
 2633SOL    HW1 8034   2.791   4.537   1.684
 2633SOL    HW2 8035   2.803   4.617   1.557
 2634SOL     OW 8036   2.891   4.126   1.251
 2634SOL    HW1 8037   2.859   4.192   1.313
 2634SOL    HW2 8038   2.981   4.152   1.233
 2635SOL     OW 8039   2.945   4.509   0.469
 2635SOL    HW1 8040   2.881   4.552   0.414
 2635SOL    HW2 8041   2.970   4.431   0.420
 2636SOL     OW 8042   1.803   4.563   0.927
 2636SOL    HW1 8043   1.891   4.573   0.964
 2636SOL    HW2 8044   1.758   4.503   0.988
 2637SOL     OW 8045   2.757   4.092   0.140
 2637SOL    HW1 8046   2.836   4.050   0.175
 2637SOL    HW2 8047   2.724   4.145   0.213
 2638SOL     OW 8048   3.600   4.330   1.817
 2638SOL    HW1 8049   3.585   4.316   1.910
 2638SOL    HW2 8050   3.643   4.250   1.787
 2639SOL     OW 8051   3.249   4.859   0.634
 2639SOL    HW1 8052   3.159   4.831   0.618
 2639SOL    HW2 8053   3.251   4.950   0.604
 2640SOL     OW 8054   2.374   3.923   0.906
 2640SOL    HW1 8055   2.287   3.927   0.945
 2640SOL    HW2 8056   2.360   3.880   0.822
 2641SOL     OW 8057   3.596   4.748   0.852
 2641SOL    HW1 8058   3.616   4.833   0.813
 2641SOL    HW2 8059   3.680   4.705   0.861
 2642SOL     OW 8060   2.158   4.639   0.272
 2642SOL    HW1 8061   2.201   4.587   0.341
 2642SOL    HW2 8062   2.084   4.585   0.244
 2643SOL     OW 8063   3.379   4.441   0.683
 2643SOL    HW1 8064   3.444   4.505   0.655
 2643SOL    HW2 8065   3.301   4.493   0.704
 2644SOL     OW 8066   1.995   3.875   1.434
 2644SOL    HW1 8067   2.062   3.942   1.447
 2644SOL    HW2 8068   2.041   3.806   1.385
 2645SOL     OW 8069   3.119   3.780   0.454
 2645SOL    HW1 8070   3.091   3.871   0.458
 2645SOL    HW2 8071   3.150   3.769   0.364
 2646SOL     OW 8072   2.223   4.471   0.483
 2646SOL    HW1 8073   2.138   4.441   0.515
 2646SOL    HW2 8074   2.261   4.395   0.440
 2647SOL     OW 8075   3.465   3.995   1.723
 2647SOL    HW1 8076   3.399   4.057   1.693
 2647SOL    HW2 8077   3.470   3.930   1.653
 2648SOL     OW 8078   2.460   3.907   0.037
 2648SOL    HW1 8079   2.544   3.862   0.042
 2648SOL    HW2 8080   2.435   3.921   0.128
 2649SOL     OW 8081   2.613   3.963   1.850
 2649SOL    HW1 8082   2.639   4.022   1.920
 2649SOL    HW2 8083   2.606   4.018   1.772
 2650SOL     OW 8084   3.219   4.322   1.422
 2650SOL    HW1 8085   3.252   4.267   1.493
 2650SOL    HW2 8086   3.208   4.262   1.349
 2651SOL     OW 8087   2.747   4.240   0.869
 2651SOL    HW1 8088   2.777   4.154   0.900
 2651SOL    HW2 8089   2.696   4.275   0.942
 2652SOL     OW 8090   2.424   3.815   0.455
 2652SOL    HW1 8091   2.397   3.805   0.547
 2652SOL    HW2 8092   2.434   3.725   0.424
 2653SOL     OW 8093   2.220   3.741   0.203
 2653SOL    HW1 8094   2.224   3.836   0.217
 2653SOL    HW2 8095   2.161   3.731   0.128
 2654SOL     OW 8096   2.765   4.017   0.540
 2654SOL    HW1 8097   2.851   4.043   0.508
 2654SOL    HW2 8098   2.720   4.100   0.559
 2655SOL     OW 8099   2.939   4.357   1.447
 2655SOL    HW1 8100   3.031   4.367   1.423
 2655SOL    HW2 8101   2.919   4.434   1.500
 2656SOL     OW 8102   2.362   4.842   0.783
 2656SOL    HW1 8103   2.408   4.852   0.866
 2656SOL    HW2 8104   2.425   4.800   0.726
 2657SOL     OW 8105   2.971   4.255   0.056
 2657SOL    HW1 8106   2.891   4.204   0.065
 2657SOL    HW2 8107   2.947   4.327  -0.003
 2658SOL     OW 8108   1.967   4.261   1.358
 2658SOL    HW1 8109   1.874   4.240   1.359
 2658SOL    HW2 8110   1.987   4.279   1.266
 2659SOL     OW 8111   2.582   3.914   1.075
 2659SOL    HW1 8112   2.513   3.931   1.011
 2659SOL    HW2 8113   2.577   3.820   1.092
 2660SOL     OW 8114   2.662   4.270   0.609
 2660SOL    HW1 8115   2.686   4.254   0.701
 2660SOL    HW2 8116   2.591   4.333   0.613
 2661SOL     OW 8117   2.960   3.750   0.755
 2661SOL    HW1 8118   3.030   3.696   0.719
 2661SOL    HW2 8119   3.004   3.826   0.792
 2662SOL     OW 8120   3.338   4.708   0.941
 2662SOL    HW1 8121   3.424   4.720   0.902
 2662SOL    HW2 8122   3.278   4.704   0.866
 2663SOL     OW 8123   3.412   4.327   0.935
 2663SOL    HW1 8124   3.332   4.360   0.976
 2663SOL    HW2 8125   3.418   4.373   0.852
 2664SOL     OW 8126   3.736   4.508   0.431
 2664SOL    HW1 8127   3.674   4.554   0.488
 2664SOL    HW2 8128   3.682   4.469   0.363
 2665SOL     OW 8129   3.244   4.290   0.090
 2665SOL    HW1 8130   3.251   4.385   0.075
 2665SOL    HW2 8131   3.157   4.267   0.057
 2666SOL     OW 8132   2.332   4.001   0.283
 2666SOL    HW1 8133   2.374   3.938   0.342
 2666SOL    HW2 8134   2.293   4.066   0.342
 2667SOL     OW 8135   3.649   0.038   1.416
 2667SOL    HW1 8136   3.635  -0.028   1.483
 2667SOL    HW2 8137   3.567   0.041   1.367
 2668SOL     OW 8138   3.566   4.844   1.126
 2668SOL    HW1 8139   3.651   4.885   1.108
 2668SOL    HW2 8140   3.540   4.804   1.043
 2669SOL     OW 8141   2.846   3.864   1.333
 2669SOL    HW1 8142   2.759   3.859   1.372
 2669SOL    HW2 8143   2.857   3.957   1.311
 2670SOL     OW 8144   2.774   4.866   1.691
 2670SOL    HW1 8145   2.686   4.863   1.728
 2670SOL    HW2 8146   2.765   4.829   1.604
 2671SOL     OW 8147   2.537   4.774   0.391
 2671SOL    HW1 8148   2.492   4.859   0.396
 2671SOL    HW2 8149   2.553   4.750   0.482
 2672SOL     OW 8150   2.249   4.571   1.259
 2672SOL    HW1 8151   2.265   4.583   1.353
 2672SOL    HW2 8152   2.269   4.479   1.243
 2673SOL     OW 8153   3.141   4.207   1.177
 2673SOL    HW1 8154   3.190   4.135   1.137
 2673SOL    HW2 8155   3.151   4.280   1.116
 2674SOL     OW 8156   2.143   4.756   0.527
 2674SOL    HW1 8157   2.163   4.668   0.558
 2674SOL    HW2 8158   2.131   4.747   0.433
 2675SOL     OW 8159   2.294   4.246   0.723
 2675SOL    HW1 8160   2.270   4.257   0.816
 2675SOL    HW2 8161   2.360   4.314   0.707
 2676SOL     OW 8162   3.344   4.343   0.425
 2676SOL    HW1 8163   3.359   4.365   0.517
 2676SOL    HW2 8164   3.350   4.248   0.422
 2677SOL     OW 8165   2.283   4.568   1.538
 2677SOL    HW1 8166   2.284   4.605   1.626
 2677SOL    HW2 8167   2.202   4.517   1.534
 2678SOL     OW 8168   3.428   4.549   1.788
 2678SOL    HW1 8169   3.467   4.463   1.776
 2678SOL    HW2 8170   3.498   4.602   1.827
 2679SOL     OW 8171   2.872   3.868   1.912
 2679SOL    HW1 8172   2.872   3.930   1.985
 2679SOL    HW2 8173   2.786   3.879   1.871
 2680SOL     OW 8174   2.486   3.778   1.680
 2680SOL    HW1 8175   2.536   3.835   1.738
 2680SOL    HW2 8176   2.502   3.690   1.713
 2681SOL     OW 8177   2.480   4.587   1.088
 2681SOL    HW1 8178   2.404   4.578   1.146
 2681SOL    HW2 8179   2.485   4.681   1.070
 2682SOL     OW 8180   3.166   4.433   1.011
 2682SOL    HW1 8181   3.167   4.505   1.074
 2682SOL    HW2 8182   3.161   4.476   0.926
 2683SOL     OW 8183   3.055   4.308   0.316
 2683SOL    HW1 8184   3.150   4.317   0.303
 2683SOL    HW2 8185   3.020   4.297   0.228
 2684SOL     OW 8186   2.243   4.004   1.239
 2684SOL    HW1 8187   2.337   4.025   1.241
 2684SOL    HW2 8188   2.210   4.033   1.324
 2685SOL     OW 8189   2.641   4.355   1.100
 2685SOL    HW1 8190   2.645   4.330   1.193
 2685SOL    HW2 8191   2.572   4.421   1.096
 2686SOL     OW 8192   3.681   4.590   1.918
 2686SOL    HW1 8193   3.741   4.603   1.991
 2686SOL    HW2 8194   3.687   4.497   1.898
 2687SOL     OW 8195   2.257   3.774   0.689
 2687SOL    HW1 8196   2.213   3.713   0.629
 2687SOL    HW2 8197   2.202   3.853   0.686
 2688SOL     OW 8198   3.367   4.070   0.431
 2688SOL    HW1 8199   3.309   4.051   0.505
 2688SOL    HW2 8200   3.450   4.028   0.453
 2689SOL     OW 8201   2.877   4.489   1.044
 2689SOL    HW1 8202   2.950   4.440   1.007
 2689SOL    HW2 8203   2.809   4.423   1.060
 2690SOL     OW 8204   2.239   4.623   1.808
 2690SOL    HW1 8205   2.314   4.636   1.865
 2690SOL    HW2 8206   2.188   4.554   1.851
 2691SOL     OW 8207   3.309   4.032   0.162
 2691SOL    HW1 8208   3.337   4.038   0.254
 2691SOL    HW2 8209   3.302   4.123   0.134
 2692SOL     OW 8210   3.147   4.557   0.095
 2692SOL    HW1 8211   3.166   4.569   0.188
 2692SOL    HW2 8212   3.055   4.583   0.086
 2693SOL     OW 8213   2.058   4.580   1.041
 2693SOL    HW1 8214   2.124   4.590   1.110
 2693SOL    HW2 8215   2.082   4.647   0.976
 2694SOL     OW 8216   2.193   4.230   0.982
 2694SOL    HW1 8217   2.112   4.271   1.012
 2694SOL    HW2 8218   2.179   4.136   0.994
 2695SOL     OW 8219   2.997   4.186   1.656
 2695SOL    HW1 8220   2.976   4.238   1.579
 2695SOL    HW2 8221   2.995   4.095   1.625
 2696SOL     OW 8222   3.002   3.937   1.555
 2696SOL    HW1 8223   3.025   3.866   1.615
 2696SOL    HW2 8224   2.960   3.894   1.481
 2697SOL     OW 8225   1.773   0.040   0.197
 2697SOL    HW1 8226   1.816  -0.044   0.180
 2697SOL    HW2 8227   1.717   0.055   0.120
 2698SOL     OW 8228   2.929   4.652   1.259
 2698SOL    HW1 8229   3.021   4.670   1.239
 2698SOL    HW2 8230   2.898   4.599   1.186
 2699SOL     OW 8231   1.967   4.333   1.094
 2699SOL    HW1 8232   1.872   4.339   1.087
 2699SOL    HW2 8233   1.998   4.422   1.076
 2700SOL     OW 8234   1.917   4.327   1.756
 2700SOL    HW1 8235   1.958   4.373   1.683
 2700SOL    HW2 8236   1.907   4.237   1.726
 2701SOL     OW 8237   3.280   4.680   1.601
 2701SOL    HW1 8238   3.307   4.769   1.622
 2701SOL    HW2 8239   3.326   4.625   1.665
 2702SOL     OW 8240   2.669   4.261   0.331
 2702SOL    HW1 8241   2.675   4.263   0.427
 2702SOL    HW2 8242   2.596   4.318   0.310
 2703SOL     OW 8243   3.561   4.226   1.156
 2703SOL    HW1 8244   3.652   4.249   1.138
 2703SOL    HW2 8245   3.513   4.263   1.081
 2704SOL     OW 8246   2.501   4.102   1.268
 2704SOL    HW1 8247   2.572   4.152   1.307
 2704SOL    HW2 8248   2.545   4.043   1.206
 2705SOL     OW 8249   2.317   4.225   0.114
 2705SOL    HW1 8250   2.320   4.146   0.168
 2705SOL    HW2 8251   2.389   4.215   0.053
 2706SOL     OW 8252   2.042   4.975   1.523
 2706SOL    HW1 8253   1.956   4.946   1.551
 2706SOL    HW2 8254   2.065   4.916   1.451
 2707SOL     OW 8255   3.195   4.657   1.170
 2707SOL    HW1 8256   3.248   4.690   1.098
 2707SOL    HW2 8257   3.259   4.631   1.236
 2708SOL     OW 8258   3.205   4.581   0.360
 2708SOL    HW1 8259   3.262   4.508   0.385
 2708SOL    HW2 8260   3.128   4.572   0.417
 2709SOL     OW 8261   1.985   4.888   1.087
 2709SOL    HW1 8262   2.027   4.855   1.008
 2709SOL    HW2 8263   1.936   4.965   1.058
 2710SOL     OW 8264   2.730   3.825   0.032
 2710SOL    HW1 8265   2.750   3.912   0.067
 2710SOL    HW2 8266   2.795   3.768   0.072
 2711SOL     OW 8267   3.598   3.957   0.516
 2711SOL    HW1 8268   3.592   3.867   0.548
 2711SOL    HW2 8269   3.642   4.004   0.586
 2712SOL     OW 8270   3.147   4.569   0.761
 2712SOL    HW1 8271   3.112   4.647   0.718
 2712SOL    HW2 8272   3.077   4.503   0.753
 2713SOL     OW 8273   3.713   3.799   0.901
 2713SOL    HW1 8274   3.774   3.845   0.843
 2713SOL    HW2 8275   3.753   3.712   0.911
 2714SOL     OW 8276   2.137   4.016   0.736
 2714SOL    HW1 8277   2.200   4.089   0.737
 2714SOL    HW2 8278   2.117   4.001   0.829
 2715SOL     OW 8279   2.744   4.751   1.434
 2715SOL    HW1 8280   2.809   4.713   1.375
 2715SOL    HW2 8281   2.720   4.835   1.393
 2716SOL     OW 8282   2.785   4.654   0.310
 2716SOL    HW1 8283   2.810   4.674   0.220
 2716SOL    HW2 8284   2.703   4.701   0.323
 2717SOL     OW 8285   2.294   4.968   1.640
 2717SOL    HW1 8286   2.204   4.958   1.611
 2717SOL    HW2 8287   2.340   5.005   1.564
 2718SOL     OW 8288   3.403   5.000   1.289
 2718SOL    HW1 8289   3.321   4.953   1.308
 2718SOL    HW2 8290   3.448   4.944   1.226
 2719SOL     OW 8291   2.999   4.748   0.604
 2719SOL    HW1 8292   2.922   4.805   0.609
 2719SOL    HW2 8293   2.969   4.671   0.555
 2720SOL     OW 8294   2.830   4.008   1.015
 2720SOL    HW1 8295   2.850   4.051   1.098
 2720SOL    HW2 8296   2.741   3.973   1.026
 2721SOL     OW 8297   3.486   3.989   1.271
 2721SOL    HW1 8298   3.559   3.936   1.238
 2721SOL    HW2 8299   3.504   4.077   1.240
 2722SOL     OW 8300   1.955   4.699   1.769
 2722SOL    HW1 8301   2.049   4.691   1.782
 2722SOL    HW2 8302   1.940   4.664   1.681
 2723SOL     OW 8303   2.599   3.881   1.441
 2723SOL    HW1 8304   2.564   3.839   1.519
 2723SOL    HW2 8305   2.531   3.944   1.416
 2724SOL     OW 8306   3.352   4.559   1.371
 2724SOL    HW1 8307   3.327   4.605   1.451
 2724SOL    HW2 8308   3.315   4.472   1.381
 2725SOL     OW 8309   1.764   3.931   0.271
 2725SOL    HW1 8310   1.805   3.996   0.214
 2725SOL    HW2 8311   1.831   3.865   0.284
 2726SOL     OW 8312   2.550   4.527   1.459
 2726SOL    HW1 8313   2.586   4.615   1.445
 2726SOL    HW2 8314   2.460   4.542   1.488
 2727SOL     OW 8315   2.622   4.145   1.647
 2727SOL    HW1 8316   2.684   4.190   1.704
 2727SOL    HW2 8317   2.631   4.189   1.562
 2728SOL     OW 8318   3.375   4.932   1.630
 2728SOL    HW1 8319   3.382   5.021   1.666
 2728SOL    HW2 8320   3.465   4.902   1.622
 2729SOL     OW 8321   3.605   4.676   1.342
 2729SOL    HW1 8322   3.527   4.621   1.346
 2729SOL    HW2 8323   3.591   4.731   1.265
 2730SOL     OW 8324   3.019   4.063   0.431
 2730SOL    HW1 8325   3.031   4.156   0.412
 2730SOL    HW2 8326   3.010   4.022   0.345
 2731SOL     OW 8327   2.462   4.461   0.633
 2731SOL    HW1 8328   2.507   4.545   0.640
 2731SOL    HW2 8329   2.388   4.478   0.575
 2732SOL     OW 8330   3.718   4.110   1.717
 2732SOL    HW1 8331   3.767   4.067   1.646
 2732SOL    HW2 8332   3.638   4.057   1.726
 2733SOL     OW 8333   3.620   4.819   1.575
 2733SOL    HW1 8334   3.697   4.788   1.623
 2733SOL    HW2 8335   3.615   4.762   1.499
 2734SOL     OW 8336   2.682   4.618   0.896
 2734SOL    HW1 8337   2.765   4.586   0.932
 2734SOL    HW2 8338   2.615   4.582   0.954
 2735SOL     OW 8339   2.901   4.689   0.041
 2735SOL    HW1 8340   2.814   4.726   0.025
 2735SOL    HW2 8341   2.961   4.752   0.001
 2736SOL     OW 8342   1.894   4.899   0.708
 2736SOL    HW1 8343   1.908   4.987   0.672
 2736SOL    HW2 8344   1.832   4.858   0.648
 2737SOL     OW 8345   3.688   3.836   1.169
 2737SOL    HW1 8346   3.692   3.838   1.073
 2737SOL    HW2 8347   3.661   3.747   1.190
 2738SOL     OW 8348   2.218   4.178   0.461
 2738SOL    HW1 8349   2.254   4.193   0.548
 2738SOL    HW2 8350   2.125   4.158   0.476
 2739SOL     OW 8351   2.329   4.320   1.205
 2739SOL    HW1 8352   2.383   4.247   1.236
 2739SOL    HW2 8353   2.291   4.288   1.123
 2740SOL     OW 8354   3.276   3.987   1.080
 2740SOL    HW1 8355   3.325   3.978   1.162
 2740SOL    HW2 8356   3.333   3.948   1.014
 2741SOL     OW 8357   2.900   3.735   1.097
 2741SOL    HW1 8358   2.884   3.756   1.189
 2741SOL    HW2 8359   2.887   3.818   1.051
 2742SOL     OW 8360   2.657   0.080   0.434
 2742SOL    HW1 8361   2.563   0.068   0.427
 2742SOL    HW2 8362   2.688   0.083   0.343
 2743SOL     OW 8363   3.186   3.769   0.179
 2743SOL    HW1 8364   3.253   3.837   0.169
 2743SOL    HW2 8365   3.222   3.693   0.132
 2744SOL     OW 8366   3.195   4.061   0.651
 2744SOL    HW1 8367   3.154   4.028   0.731
 2744SOL    HW2 8368   3.124   4.066   0.587
 2745SOL     OW 8369   3.453   3.876   0.903
 2745SOL    HW1 8370   3.543   3.844   0.897
 2745SOL    HW2 8371   3.450   3.951   0.844
 2746SOL     OW 8372   2.098   4.431   1.944
 2746SOL    HW1 8373   2.133   4.350   1.981
 2746SOL    HW2 8374   2.023   4.403   1.891
 2747SOL     OW 8375   2.159   3.917   2.809
 2747SOL    HW1 8376   2.083   3.920   2.867
 2747SOL    HW2 8377   2.133   3.964   2.731
 2748SOL     OW 8378   1.851   4.154   2.494
 2748SOL    HW1 8379   1.777   4.171   2.553
 2748SOL    HW2 8380   1.918   4.116   2.550
 2749SOL     OW 8381   3.023   4.484   2.508
 2749SOL    HW1 8382   2.981   4.477   2.422
 2749SOL    HW2 8383   3.063   4.398   2.521
 2750SOL     OW 8384   3.546   4.315   2.084
 2750SOL    HW1 8385   3.591   4.377   2.141
 2750SOL    HW2 8386   3.543   4.234   2.134
 2751SOL     OW 8387   2.568   4.844   2.895
 2751SOL    HW1 8388   2.642   4.879   2.945
 2751SOL    HW2 8389   2.517   4.921   2.870
 2752SOL     OW 8390   2.726   4.524   3.656
 2752SOL    HW1 8391   2.732   4.582   3.580
 2752SOL    HW2 8392   2.688   4.443   3.622
 2753SOL     OW 8393   2.534   4.695   2.546
 2753SOL    HW1 8394   2.442   4.716   2.559
 2753SOL    HW2 8395   2.576   4.780   2.533
 2754SOL     OW 8396   2.611   4.829   3.641
 2754SOL    HW1 8397   2.551   4.892   3.601
 2754SOL    HW2 8398   2.649   4.782   3.567
 2755SOL     OW 8399   2.314   4.140   3.378
 2755SOL    HW1 8400   2.251   4.186   3.322
 2755SOL    HW2 8401   2.261   4.105   3.450
 2756SOL     OW 8402   3.478   4.168   2.669
 2756SOL    HW1 8403   3.567   4.161   2.635
 2756SOL    HW2 8404   3.453   4.258   2.650
 2757SOL     OW 8405   2.091   4.809   2.796
 2757SOL    HW1 8406   2.073   4.764   2.878
 2757SOL    HW2 8407   2.085   4.902   2.817
 2758SOL     OW 8408   2.481   4.632   1.958
 2758SOL    HW1 8409   2.524   4.688   2.022
 2758SOL    HW2 8410   2.458   4.553   2.006
 2759SOL     OW 8411   3.430   3.987   3.273
 2759SOL    HW1 8412   3.425   3.971   3.367
 2759SOL    HW2 8413   3.500   4.052   3.264
 2760SOL     OW 8414   2.016   4.366   2.423
 2760SOL    HW1 8415   1.961   4.288   2.434
 2760SOL    HW2 8416   1.968   4.420   2.361
 2761SOL     OW 8417   3.450   4.575   2.407
 2761SOL    HW1 8418   3.469   4.666   2.432
 2761SOL    HW2 8419   3.389   4.583   2.334
 2762SOL     OW 8420   3.475   4.840   2.461
 2762SOL    HW1 8421   3.527   4.913   2.428
 2762SOL    HW2 8422   3.385   4.859   2.433
 2763SOL     OW 8423   2.012   4.577   3.398
 2763SOL    HW1 8424   2.092   4.574   3.449
 2763SOL    HW2 8425   1.993   4.485   3.377
 2764SOL     OW 8426   3.176   4.891   3.288
 2764SOL    HW1 8427   3.195   4.978   3.253
 2764SOL    HW2 8428   3.194   4.832   3.216
 2765SOL     OW 8429   2.651   3.809   2.300
 2765SOL    HW1 8430   2.574   3.820   2.357
 2765SOL    HW2 8431   2.710   3.879   2.326
 2766SOL     OW 8432   1.993   4.734   3.062
 2766SOL    HW1 8433   1.992   4.788   3.141
 2766SOL    HW2 8434   2.052   4.662   3.083
 2767SOL     OW 8435   3.512   4.748   2.074
 2767SOL    HW1 8436   3.571   4.816   2.107
 2767SOL    HW2 8437   3.567   4.694   2.018
 2768SOL     OW 8438   2.208   4.033   3.612
 2768SOL    HW1 8439   2.280   4.013   3.672
 2768SOL    HW2 8440   2.146   3.962   3.625
 2769SOL     OW 8441   2.439   4.406   2.107
 2769SOL    HW1 8442   2.520   4.372   2.144
 2769SOL    HW2 8443   2.380   4.416   2.182
 2770SOL     OW 8444   3.142   4.094   2.854
 2770SOL    HW1 8445   3.181   4.040   2.923
 2770SOL    HW2 8446   3.049   4.072   2.856
 2771SOL     OW 8447   2.577   4.359   3.261
 2771SOL    HW1 8448   2.548   4.279   3.218
 2771SOL    HW2 8449   2.665   4.375   3.226
 2772SOL     OW 8450   3.254   4.154   3.500
 2772SOL    HW1 8451   3.223   4.180   3.587
 2772SOL    HW2 8452   3.314   4.081   3.516
 2773SOL     OW 8453   2.745   4.695   3.441
 2773SOL    HW1 8454   2.818   4.755   3.453
 2773SOL    HW2 8455   2.730   4.694   3.347
 2774SOL     OW 8456   2.739   4.133   3.050
 2774SOL    HW1 8457   2.664   4.104   3.101
 2774SOL    HW2 8458   2.707   4.212   3.006
 2775SOL     OW 8459   2.915   4.445   2.251
 2775SOL    HW1 8460   2.987   4.393   2.217
 2775SOL    HW2 8461   2.900   4.513   2.185
 2776SOL     OW 8462   2.056   4.434   2.694
 2776SOL    HW1 8463   2.006   4.364   2.735
 2776SOL    HW2 8464   2.048   4.418   2.600
 2777SOL     OW 8465   2.754   4.104   2.069
 2777SOL    HW1 8466   2.711   4.172   2.122
 2777SOL    HW2 8467   2.784   4.150   1.991
 2778SOL     OW 8468   3.514   4.258   3.736
 2778SOL    HW1 8469   3.425   4.221   3.742
 2778SOL    HW2 8470   3.564   4.191   3.689
 2779SOL     OW 8471   3.215   4.838   2.364
 2779SOL    HW1 8472   3.180   4.914   2.318
 2779SOL    HW2 8473   3.229   4.773   2.295
 2780SOL     OW 8474   2.422   3.903   2.723
 2780SOL    HW1 8475   2.461   3.845   2.789
 2780SOL    HW2 8476   2.329   3.903   2.744
 2781SOL     OW 8477   3.750   4.763   2.713
 2781SOL    HW1 8478   3.778   4.695   2.652
 2781SOL    HW2 8479   3.736   4.840   2.659
 2782SOL     OW 8480   2.156   4.612   2.149
 2782SOL    HW1 8481   2.196   4.548   2.208
 2782SOL    HW2 8482   2.127   4.560   2.074
 2783SOL     OW 8483   3.368   4.407   2.605
 2783SOL    HW1 8484   3.327   4.453   2.679
 2783SOL    HW2 8485   3.398   4.478   2.548
 2784SOL     OW 8486   1.952   3.889   3.367
 2784SOL    HW1 8487   1.870   3.935   3.385
 2784SOL    HW2 8488   1.977   3.917   3.280
 2785SOL     OW 8489   3.275   3.893   2.390
 2785SOL    HW1 8490   3.211   3.964   2.396
 2785SOL    HW2 8491   3.267   3.862   2.300
 2786SOL     OW 8492   2.266   4.431   2.320
 2786SOL    HW1 8493   2.331   4.431   2.390
 2786SOL    HW2 8494   2.186   4.399   2.361
 2787SOL     OW 8495   3.439   3.961   3.553
 2787SOL    HW1 8496   3.406   3.932   3.638
 2787SOL    HW2 8497   3.529   3.987   3.570
 2788SOL     OW 8498   2.483   3.869   2.087
 2788SOL    HW1 8499   2.518   3.880   1.999
 2788SOL    HW2 8500   2.559   3.845   2.140
 2789SOL     OW 8501   2.711   4.028   3.699
 2789SOL    HW1 8502   2.651   4.027   3.625
 2789SOL    HW2 8503   2.787   4.078   3.668
 2790SOL     OW 8504   2.808   4.269   2.728
 2790SOL    HW1 8505   2.874   4.337   2.735
 2790SOL    HW2 8506   2.739   4.295   2.789
 2791SOL     OW 8507   2.422   3.870   2.446
 2791SOL    HW1 8508   2.435   3.886   2.540
 2791SOL    HW2 8509   2.329   3.849   2.439
 2792SOL     OW 8510   2.187   3.732   1.980
 2792SOL    HW1 8511   2.247   3.682   2.034
 2792SOL    HW2 8512   2.135   3.666   1.934
 2793SOL     OW 8513   2.820   4.023   2.341
 2793SOL    HW1 8514   2.912   4.043   2.356
 2793SOL    HW2 8515   2.805   4.044   2.249
 2794SOL     OW 8516   2.984   4.331   3.366
 2794SOL    HW1 8517   2.980   4.380   3.449
 2794SOL    HW2 8518   2.922   4.376   3.309
 2795SOL     OW 8519   2.272   4.784   2.571
 2795SOL    HW1 8520   2.219   4.790   2.651
 2795SOL    HW2 8521   2.207   4.778   2.500
 2796SOL     OW 8522   2.802   4.240   1.839
 2796SOL    HW1 8523   2.784   4.334   1.838
 2796SOL    HW2 8524   2.881   4.230   1.786
 2797SOL     OW 8525   1.931   4.318   3.351
 2797SOL    HW1 8526   1.958   4.288   3.438
 2797SOL    HW2 8527   1.851   4.270   3.332
 2798SOL     OW 8528   2.318   3.948   3.033
 2798SOL    HW1 8529   2.381   3.879   3.014
 2798SOL    HW2 8530   2.271   3.961   2.951
 2799SOL     OW 8531   2.684   4.230   2.486
 2799SOL    HW1 8532   2.727   4.241   2.571
 2799SOL    HW2 8533   2.720   4.148   2.452
 2800SOL     OW 8534   2.935   3.853   2.609
 2800SOL    HW1 8535   2.922   3.912   2.683
 2800SOL    HW2 8536   2.903   3.902   2.533
 2801SOL     OW 8537   3.273   4.778   2.807
 2801SOL    HW1 8538   3.262   4.871   2.830
 2801SOL    HW2 8539   3.224   4.768   2.726
 2802SOL     OW 8540   3.279   4.296   2.988
 2802SOL    HW1 8541   3.262   4.375   2.936
 2802SOL    HW2 8542   3.233   4.227   2.941
 2803SOL     OW 8543   3.673   4.462   2.282
 2803SOL    HW1 8544   3.723   4.410   2.346
 2803SOL    HW2 8545   3.602   4.501   2.334
 2804SOL     OW 8546   3.298   4.293   1.957
 2804SOL    HW1 8547   3.382   4.310   2.000
 2804SOL    HW2 8548   3.257   4.379   1.948
 2805SOL     OW 8549   2.359   4.055   2.245
 2805SOL    HW1 8550   2.378   4.005   2.324
 2805SOL    HW2 8551   2.394   4.001   2.174
 2806SOL     OW 8552   3.630   4.934   3.384
 2806SOL    HW1 8553   3.543   4.931   3.423
 2806SOL    HW2 8554   3.651   5.027   3.378
 2807SOL     OW 8555   3.548   4.776   2.903
 2807SOL    HW1 8556   3.471   4.773   2.846
 2807SOL    HW2 8557   3.622   4.767   2.843
 2808SOL     OW 8558   2.786   3.780   3.223
 2808SOL    HW1 8559   2.698   3.798   3.256
 2808SOL    HW2 8560   2.776   3.776   3.128
 2809SOL     OW 8561   2.901   4.869   3.607
 2809SOL    HW1 8562   2.961   4.834   3.673
 2809SOL    HW2 8563   2.818   4.880   3.654
 2810SOL     OW 8564   2.618   4.793   2.143
 2810SOL    HW1 8565   2.581   4.775   2.229
 2810SOL    HW2 8566   2.617   4.888   2.135
 2811SOL     OW 8567   2.195   4.549   3.125
 2811SOL    HW1 8568   2.271   4.572   3.179
 2811SOL    HW2 8569   2.231   4.539   3.037
 2812SOL     OW 8570   3.004   4.120   3.126
 2812SOL    HW1 8571   3.004   4.049   3.190
 2812SOL    HW2 8572   2.912   4.135   3.105
 2813SOL     OW 8573   2.142   4.842   2.292
 2813SOL    HW1 8574   2.060   4.876   2.257
 2813SOL    HW2 8575   2.158   4.762   2.243
 2814SOL     OW 8576   2.445   4.178   2.816
 2814SOL    HW1 8577   2.355   4.188   2.847
 2814SOL    HW2 8578   2.444   4.097   2.765
 2815SOL     OW 8579   3.334   4.281   2.343
 2815SOL    HW1 8580   3.401   4.217   2.317
 2815SOL    HW2 8581   3.370   4.322   2.421
 2816SOL     OW 8582   2.255   4.537   3.521
 2816SOL    HW1 8583   2.273   4.444   3.534
 2816SOL    HW2 8584   2.311   4.562   3.447
 2817SOL     OW 8585   3.446   4.491   3.605
 2817SOL    HW1 8586   3.482   4.409   3.641
 2817SOL    HW2 8587   3.433   4.473   3.512
 2818SOL     OW 8588   2.958   3.875   3.588
 2818SOL    HW1 8589   2.881   3.855   3.642
 2818SOL    HW2 8590   2.969   3.970   3.596
 2819SOL     OW 8591   2.436   3.725   3.592
 2819SOL    HW1 8592   2.358   3.689   3.551
 2819SOL    HW2 8593   2.490   3.649   3.612
 2820SOL     OW 8594   2.502   4.590   2.966
 2820SOL    HW1 8595   2.509   4.680   2.934
 2820SOL    HW2 8596   2.421   4.557   2.926
 2821SOL     OW 8597   3.218   4.507   2.821
 2821SOL    HW1 8598   3.239   4.600   2.826
 2821SOL    HW2 8599   3.123   4.503   2.812
 2822SOL     OW 8600   3.123   4.281   2.181
 2822SOL    HW1 8601   3.199   4.295   2.237
 2822SOL    HW2 8602   3.160   4.270   2.093
 2823SOL     OW 8603   2.053   3.895   3.103
 2823SOL    HW1 8604   2.145   3.922   3.101
 2823SOL    HW2 8605   2.056   3.800   3.118
 2824SOL     OW 8606   2.629   4.346   2.918
 2824SOL    HW1 8607   2.557   4.293   2.883
 2824SOL    HW2 8608   2.589   4.431   2.936
 2825SOL     OW 8609   3.612   4.686   3.712
 2825SOL    HW1 8610   3.549   4.703   3.783
 2825SOL    HW2 8611   3.567   4.624   3.655
 2826SOL     OW 8612   2.151   3.830   2.404
 2826SOL    HW1 8613   2.104   3.849   2.322
 2826SOL    HW2 8614   2.150   3.734   2.410
 2827SOL     OW 8615   3.502   4.089   2.236
 2827SOL    HW1 8616   3.521   4.019   2.299
 2827SOL    HW2 8617   3.471   4.043   2.158
 2828SOL     OW 8618   2.946   4.507   2.765
 2828SOL    HW1 8619   2.969   4.508   2.672
 2828SOL    HW2 8620   2.869   4.565   2.771
 2829SOL     OW 8621   2.251   4.617   3.795
 2829SOL    HW1 8622   2.346   4.626   3.801
 2829SOL    HW2 8623   2.233   4.618   3.701
 2830SOL     OW 8624   3.384   4.016   1.989
 2830SOL    HW1 8625   3.342   4.101   1.976
 2830SOL    HW2 8626   3.424   3.995   1.905
 2831SOL     OW 8627   3.193   4.550   1.935
 2831SOL    HW1 8628   3.122   4.604   1.900
 2831SOL    HW2 8629   3.267   4.567   1.876
 2832SOL     OW 8630   2.270   4.486   2.867
 2832SOL    HW1 8631   2.207   4.506   2.798
 2832SOL    HW2 8632   2.261   4.392   2.881
 2833SOL     OW 8633   2.195   4.224   2.926
 2833SOL    HW1 8634   2.185   4.226   3.021
 2833SOL    HW2 8635   2.106   4.221   2.892
 2834SOL     OW 8636   2.932   4.149   3.584
 2834SOL    HW1 8637   2.953   4.233   3.625
 2834SOL    HW2 8638   2.943   4.164   3.490
 2835SOL     OW 8639   2.991   3.931   3.316
 2835SOL    HW1 8640   2.993   3.909   3.409
 2835SOL    HW2 8641   2.923   3.874   3.280
 2836SOL     OW 8642   1.842   0.130   2.014
 2836SOL    HW1 8643   1.755   0.124   1.975
 2836SOL    HW2 8644   1.879   0.211   1.978
 2837SOL     OW 8645   2.823   4.445   3.172
 2837SOL    HW1 8646   2.784   4.533   3.173
 2837SOL    HW2 8647   2.851   4.433   3.081
 2838SOL     OW 8648   1.928   4.214   2.845
 2838SOL    HW1 8649   1.860   4.254   2.899
 2838SOL    HW2 8650   1.899   4.124   2.832
 2839SOL     OW 8651   2.047   4.256   3.588
 2839SOL    HW1 8652   2.099   4.176   3.599
 2839SOL    HW2 8653   2.057   4.303   3.670
 2840SOL     OW 8654   3.233   4.679   3.458
 2840SOL    HW1 8655   3.297   4.728   3.510
 2840SOL    HW2 8656   3.187   4.745   3.408
 2841SOL     OW 8657   2.672   4.316   2.227
 2841SOL    HW1 8658   2.751   4.370   2.230
 2841SOL    HW2 8659   2.657   4.289   2.317
 2842SOL     OW 8660   3.548   4.338   3.034
 2842SOL    HW1 8661   3.570   4.281   3.108
 2842SOL    HW2 8662   3.458   4.314   3.012
 2843SOL     OW 8663   2.488   4.115   3.169
 2843SOL    HW1 8664   2.435   4.120   3.248
 2843SOL    HW2 8665   2.435   4.063   3.108
 2844SOL     OW 8666   2.239   4.214   2.048
 2844SOL    HW1 8667   2.312   4.276   2.043
 2844SOL    HW2 8668   2.260   4.157   2.122
 2845SOL     OW 8669   1.983   4.838   3.322
 2845SOL    HW1 8670   1.999   4.750   3.355
 2845SOL    HW2 8671   1.908   4.869   3.373
 2846SOL     OW 8672   3.259   4.736   3.084
 2846SOL    HW1 8673   3.337   4.684   3.101
 2846SOL    HW2 8674   3.257   4.748   2.989
 2847SOL     OW 8675   3.291   4.641   2.184
 2847SOL    HW1 8676   3.367   4.682   2.145
 2847SOL    HW2 8677   3.244   4.602   2.110
 2848SOL     OW 8678   2.049   0.062   2.886
 2848SOL    HW1 8679   2.014   0.089   2.971
 2848SOL    HW2 8680   2.077   0.144   2.845
 2849SOL     OW 8681   3.551   3.896   2.439
 2849SOL    HW1 8682   3.455   3.896   2.442
 2849SOL    HW2 8683   3.575   3.810   2.474
 2850SOL     OW 8684   3.110   4.739   2.593
 2850SOL    HW1 8685   3.145   4.784   2.515
 2850SOL    HW2 8686   3.080   4.654   2.560
 2851SOL     OW 8687   3.658   3.954   2.901
 2851SOL    HW1 8688   3.710   3.889   2.854
 2851SOL    HW2 8689   3.569   3.945   2.865
 2852SOL     OW 8690   2.090   4.032   2.578
 2852SOL    HW1 8691   2.103   3.962   2.515
 2852SOL    HW2 8692   2.157   4.097   2.556
 2853SOL     OW 8693   2.681   4.679   3.166
 2853SOL    HW1 8694   2.722   4.755   3.124
 2853SOL    HW2 8695   2.616   4.649   3.103
 2854SOL     OW 8696   2.838   4.629   2.058
 2854SOL    HW1 8697   2.777   4.695   2.091
 2854SOL    HW2 8698   2.895   4.676   1.998
 2855SOL     OW 8699   2.225   4.975   3.329
 2855SOL    HW1 8700   2.144   4.925   3.328
 2855SOL    HW2 8701   2.209   5.048   3.270
 2856SOL     OW 8702   3.487   0.016   3.042
 2856SOL    HW1 8703   3.560   0.078   3.037
 2856SOL    HW2 8704   3.523  -0.067   3.010
 2857SOL     OW 8705   2.923   4.866   2.772
 2857SOL    HW1 8706   2.995   4.844   2.713
 2857SOL    HW2 8707   2.858   4.797   2.757
 2858SOL     OW 8708   2.867   4.024   2.831
 2858SOL    HW1 8709   2.830   4.046   2.917
 2858SOL    HW2 8710   2.848   4.100   2.776
 2859SOL     OW 8711   3.633   4.178   3.243
 2859SOL    HW1 8712   3.693   4.249   3.265
 2859SOL    HW2 8713   3.690   4.105   3.220
 2860SOL     OW 8714   1.909   4.849   3.685
 2860SOL    HW1 8715   1.869   4.769   3.719
 2860SOL    HW2 8716   1.854   4.874   3.611
 2861SOL     OW 8717   2.550   4.044   3.481
 2861SOL    HW1 8718   2.465   4.079   3.455
 2861SOL    HW2 8719   2.563   3.968   3.425
 2862SOL     OW 8720   2.070   4.056   1.890
 2862SOL    HW1 8721   2.121   4.116   1.945
 2862SOL    HW2 8722   2.135   4.002   1.847
 2863SOL     OW 8723   3.342   4.469   3.325
 2863SOL    HW1 8724   3.401   4.517   3.266
 2863SOL    HW2 8725   3.295   4.537   3.373
 2864SOL     OW 8726   2.019   3.854   2.160
 2864SOL    HW1 8727   2.077   3.818   2.093
 2864SOL    HW2 8728   1.989   3.937   2.123
 2865SOL     OW 8729   2.415   4.576   3.299
 2865SOL    HW1 8730   2.477   4.648   3.291
 2865SOL    HW2 8731   2.469   4.497   3.284
 2866SOL     OW 8732   2.610   4.317   3.529
 2866SOL    HW1 8733   2.596   4.222   3.533
 2866SOL    HW2 8734   2.595   4.339   3.438
 2867SOL     OW 8735   3.376   4.937   3.474
 2867SOL    HW1 8736   3.373   5.028   3.506
 2867SOL    HW2 8737   3.298   4.928   3.420
 2868SOL     OW 8738   3.501   4.599   3.109
 2868SOL    HW1 8739   3.532   4.658   3.041
 2868SOL    HW2 8740   3.524   4.511   3.077
 2869SOL     OW 8741   3.078   4.093   2.385
 2869SOL    HW1 8742   3.102   4.143   2.463
 2869SOL    HW2 8743   3.095   4.154   2.313
 2870SOL     OW 8744   2.471   4.414   2.499
 2870SOL    HW1 8745   2.549   4.359   2.504
 2870SOL    HW2 8746   2.502   4.502   2.521
 2871SOL     OW 8747   3.682   4.069   3.616
 2871SOL    HW1 8748   3.734   4.073   3.696
 2871SOL    HW2 8749   3.746   4.078   3.545
 2872SOL     OW 8750   3.606   4.660   3.356
 2872SOL    HW1 8751   3.601   4.754   3.369
 2872SOL    HW2 8752   3.571   4.646   3.268
 2873SOL     OW 8753   2.728   4.675   2.743
 2873SOL    HW1 8754   2.672   4.724   2.803
 2873SOL    HW2 8755   2.675   4.662   2.665
 2874SOL     OW 8756   2.976   4.702   1.820
 2874SOL    HW1 8757   2.932   4.782   1.794
 2874SOL    HW2 8758   2.963   4.641   1.747
 2875SOL     OW 8759   1.804   4.982   2.510
 2875SOL    HW1 8760   1.895   5.010   2.497
 2875SOL    HW2 8761   1.810   4.912   2.575
 2876SOL     OW 8762   3.775   3.968   3.152
 2876SOL    HW1 8763   3.865   3.967   3.119
 2876SOL    HW2 8764   3.721   3.948   3.076
 2877SOL     OW 8765   2.301   4.182   2.497
 2877SOL    HW1 8766   2.356   4.256   2.522
 2877SOL    HW2 8767   2.318   4.170   2.404
 2878SOL     OW 8768   2.152   4.286   3.198
 2878SOL    HW1 8769   2.069   4.290   3.245
 2878SOL    HW2 8770   2.170   4.377   3.174
 2879SOL     OW 8771   3.288   3.942   3.033
 2879SOL    HW1 8772   3.332   3.955   3.117
 2879SOL    HW2 8773   3.290   3.848   3.019
 2880SOL     OW 8774   2.767   3.778   2.944
 2880SOL    HW1 8775   2.804   3.857   2.906
 2880SOL    HW2 8776   2.795   3.708   2.885
 2881SOL     OW 8777   2.566   0.075   2.179
 2881SOL    HW1 8778   2.632   0.112   2.238
 2881SOL    HW2 8779   2.505   0.030   2.236
 2882SOL     OW 8780   3.263   3.811   2.128
 2882SOL    HW1 8781   3.326   3.739   2.126
 2882SOL    HW2 8782   3.301   3.879   2.072
 2883SOL     OW 8783   3.144   4.238   2.608
 2883SOL    HW1 8784   3.228   4.282   2.606
 2883SOL    HW2 8785   3.145   4.187   2.689
 2884SOL     OW 8786   3.410   3.936   2.780
 2884SOL    HW1 8787   3.355   3.965   2.852
 2884SOL    HW2 8788   3.426   4.015   2.728
 2885SOL     OW 8789   1.911   4.926   2.179
 2885SOL    HW1 8790   1.827   4.891   2.208
 2885SOL    HW2 8791   1.888   4.992   2.114
 2886SOL     OW 8792   2.111   4.384   3.828
 2886SOL    HW1 8793   2.150   4.470   3.818
 2886SOL    HW2 8794   2.181   4.329   3.862
 2887SOL     OW 8795   2.040   3.942   4.706
 2887SOL    HW1 8796   2.111   3.919   4.765
 2887SOL    HW2 8797   1.961   3.906   4.747
 2888SOL     OW 8798   1.792   4.112   4.369
 2888SOL    HW1 8799   1.861   4.052   4.398
 2888SOL    HW2 8800   1.839   4.190   4.339
 2889SOL     OW 8801   3.124   4.413   4.457
 2889SOL    HW1 8802   3.084   4.399   4.543
 2889SOL    HW2 8803   3.153   4.325   4.431
 2890SOL     OW 8804   3.633   4.368   3.962
 2890SOL    HW1 8805   3.585   4.323   4.032
 2890SOL    HW2 8806   3.590   4.340   3.882
 2891SOL     OW 8807   2.611   4.903   4.765
 2891SOL    HW1 8808   2.530   4.944   4.736
 2891SOL    HW2 8809   2.628   4.834   4.700
 2892SOL     OW 8810   2.640   4.603   4.333
 2892SOL    HW1 8811   2.650   4.688   4.290
 2892SOL    HW2 8812   2.690   4.543   4.278
 2893SOL     OW 8813   3.504   4.137   4.449
 2893SOL    HW1 8814   3.555   4.058   4.467
 2893SOL    HW2 8815   3.534   4.201   4.514
 2894SOL     OW 8816   2.104   4.861   4.642
 2894SOL    HW1 8817   2.122   4.900   4.727
 2894SOL    HW2 8818   2.172   4.896   4.585
 2895SOL     OW 8819   2.525   4.635   3.813
 2895SOL    HW1 8820   2.541   4.719   3.770
 2895SOL    HW2 8821   2.579   4.572   3.766
 2896SOL     OW 8822   1.969   4.312   4.306
 2896SOL    HW1 8823   1.979   4.352   4.393
 2896SOL    HW2 8824   2.054   4.271   4.288
 2897SOL     OW 8825   3.522   4.681   4.277
 2897SOL    HW1 8826   3.472   4.604   4.304
 2897SOL    HW2 8827   3.589   4.647   4.218
 2898SOL     OW 8828   3.551   4.887   4.098
 2898SOL    HW1 8829   3.531   4.971   4.139
 2898SOL    HW2 8830   3.541   4.823   4.169
 2899SOL     OW 8831   2.586   3.733   4.377
 2899SOL    HW1 8832   2.678   3.758   4.369
 2899SOL    HW2 8833   2.553   3.784   4.451
 2900SOL     OW 8834   2.061   4.623   4.894
 2900SOL    HW1 8835   1.998   4.552   4.882
 2900SOL    HW2 8836   2.007   4.702   4.895
 2901SOL     OW 8837   3.434   4.716   3.914
 2901SOL    HW1 8838   3.465   4.784   3.974
 2901SOL    HW2 8839   3.363   4.672   3.961
 2902SOL     OW 8840   2.516   4.444   4.018
 2902SOL    HW1 8841   2.437   4.456   4.070
 2902SOL    HW2 8842   2.511   4.512   3.951
 2903SOL     OW 8843   3.126   4.079   4.677
 2903SOL    HW1 8844   3.103   4.168   4.702
 2903SOL    HW2 8845   3.165   4.041   4.756
 2904SOL     OW 8846   2.969   4.454   4.040
 2904SOL    HW1 8847   2.931   4.519   3.981
 2904SOL    HW2 8848   2.899   4.433   4.102
 2905SOL     OW 8849   1.951   4.447   4.553
 2905SOL    HW1 8850   2.032   4.494   4.568
 2905SOL    HW2 8851   1.927   4.411   4.638
 2906SOL     OW 8852   2.794   4.055   3.969
 2906SOL    HW1 8853   2.878   4.098   3.957
 2906SOL    HW2 8854   2.761   4.042   3.880
 2907SOL     OW 8855   3.231   4.747   4.233
 2907SOL    HW1 8856   3.315   4.765   4.275
 2907SOL    HW2 8857   3.169   4.740   4.306
 2908SOL     OW 8858   2.366   3.889   4.615
 2908SOL    HW1 8859   2.329   3.900   4.702
 2908SOL    HW2 8860   2.355   3.974   4.573
 2909SOL     OW 8861   3.640   4.764   4.511
 2909SOL    HW1 8862   3.592   4.746   4.430
 2909SOL    HW2 8863   3.693   4.685   4.526
 2910SOL     OW 8864   2.218   4.696   4.065
 2910SOL    HW1 8865   2.218   4.679   3.971
 2910SOL    HW2 8866   2.243   4.612   4.105
 2911SOL     OW 8867   3.387   4.466   4.372
 2911SOL    HW1 8868   3.408   4.472   4.465
 2911SOL    HW2 8869   3.292   4.454   4.369
 2912SOL     OW 8870   3.280   3.830   4.223
 2912SOL    HW1 8871   3.371   3.800   4.211
 2912SOL    HW2 8872   3.237   3.809   4.140
 2913SOL     OW 8873   2.295   4.457   4.179
 2913SOL    HW1 8874   2.340   4.454   4.264
 2913SOL    HW2 8875   2.249   4.373   4.174
 2914SOL     OW 8876   2.428   3.936   3.778
 2914SOL    HW1 8877   2.427   3.860   3.719
 2914SOL    HW2 8878   2.517   3.970   3.772
 2915SOL     OW 8879   2.771   4.209   4.625
 2915SOL    HW1 8880   2.721   4.262   4.688
 2915SOL    HW2 8881   2.717   4.206   4.547
 2916SOL     OW 8882   2.388   3.788   4.190
 2916SOL    HW1 8883   2.465   3.762   4.240
 2916SOL    HW2 8884   2.379   3.719   4.123
 2917SOL     OW 8885   2.098   3.862   3.957
 2917SOL    HW1 8886   2.151   3.931   3.996
 2917SOL    HW2 8887   2.009   3.882   3.984
 2918SOL     OW 8888   2.732   4.027   4.234
 2918SOL    HW1 8889   2.783   3.953   4.266
 2918SOL    HW2 8890   2.751   4.030   4.140
 2919SOL     OW 8891   2.306   4.956   4.492
 2919SOL    HW1 8892   2.335   5.048   4.488
 2919SOL    HW2 8893   2.292   4.932   4.401
 2920SOL     OW 8894   2.986   4.415   3.633
 2920SOL    HW1 8895   2.910   4.465   3.662
 2920SOL    HW2 8896   3.061   4.459   3.673
 2921SOL     OW 8897   2.603   4.178   4.412
 2921SOL    HW1 8898   2.521   4.131   4.430
 2921SOL    HW2 8899   2.648   4.123   4.348
 2922SOL     OW 8900   2.849   3.813   4.387
 2922SOL    HW1 8901   2.868   3.860   4.468
 2922SOL    HW2 8902   2.925   3.756   4.374
 2923SOL     OW 8903   3.213   4.735   4.678
 2923SOL    HW1 8904   3.299   4.775   4.684
 2923SOL    HW2 8905   3.172   4.753   4.763
 2924SOL     OW 8906   3.583   4.328   4.629
 2924SOL    HW1 8907   3.616   4.321   4.718
 2924SOL    HW2 8908   3.504   4.382   4.636
 2925SOL     OW 8909   3.713   4.592   4.103
 2925SOL    HW1 8910   3.774   4.545   4.160
 2925SOL    HW2 8911   3.680   4.525   4.043
 2926SOL     OW 8912   3.227   4.225   3.772
 2926SOL    HW1 8913   3.156   4.206   3.833
 2926SOL    HW2 8914   3.223   4.320   3.760
 2927SOL     OW 8915   2.330   4.005   4.034
 2927SOL    HW1 8916   2.358   3.937   4.095
 2927SOL    HW2 8917   2.362   3.977   3.949
 2928SOL     OW 8918   3.475   4.810   4.727
 2928SOL    HW1 8919   3.535   4.811   4.653
 2928SOL    HW2 8920   3.503   4.735   4.779
 2929SOL     OW 8921   2.666   4.822   3.991
 2929SOL    HW1 8922   2.673   4.838   4.086
 2929SOL    HW2 8923   2.590   4.765   3.982
 2930SOL     OW 8924   2.332   4.638   4.915
 2930SOL    HW1 8925   2.362   4.651   5.005
 2930SOL    HW2 8926   2.237   4.635   4.921
 2931SOL     OW 8927   2.258   4.924   4.221
 2931SOL    HW1 8928   2.324   4.979   4.180
 2931SOL    HW2 8929   2.248   4.849   4.163
 2932SOL     OW 8930   2.327   4.167   4.496
 2932SOL    HW1 8931   2.255   4.177   4.558
 2932SOL    HW2 8932   2.358   4.256   4.480
 2933SOL     OW 8933   3.510   4.250   4.203
 2933SOL    HW1 8934   3.465   4.333   4.219
 2933SOL    HW2 8935   3.502   4.202   4.286
 2934SOL     OW 8936   2.448   4.539   4.697
 2934SOL    HW1 8937   2.373   4.532   4.638
 2934SOL    HW2 8938   2.413   4.578   4.777
 2935SOL     OW 8939   3.381   4.508   4.652
 2935SOL    HW1 8940   3.423   4.534   4.734
 2935SOL    HW2 8941   3.301   4.561   4.649
 2936SOL     OW 8942   3.038   4.195   3.966
 2936SOL    HW1 8943   3.082   4.156   4.041
 2936SOL    HW2 8944   3.017   4.284   3.994
 2937SOL     OW 8945   2.254   3.866   4.864
 2937SOL    HW1 8946   2.328   3.885   4.922
 2937SOL    HW2 8947   2.203   3.800   4.910
 2938SOL     OW 8948   2.631   4.364   4.801
 2938SOL    HW1 8949   2.584   4.303   4.859
 2938SOL    HW2 8950   2.562   4.421   4.766
 2939SOL     OW 8951   2.149   3.749   4.321
 2939SOL    HW1 8952   2.176   3.706   4.402
 2939SOL    HW2 8953   2.231   3.772   4.277
 2940SOL     OW 8954   3.508   4.019   4.034
 2940SOL    HW1 8955   3.603   4.013   4.026
 2940SOL    HW2 8956   3.493   4.096   4.089
 2941SOL     OW 8957   3.008   4.332   4.691
 2941SOL    HW1 8958   2.978   4.384   4.766
 2941SOL    HW2 8959   2.929   4.287   4.660
 2942SOL     OW 8960   3.342   3.972   3.821
 2942SOL    HW1 8961   3.401   3.987   3.895
 2942SOL    HW2 8962   3.293   4.053   3.812
 2943SOL     OW 8963   3.214   4.509   3.759
 2943SOL    HW1 8964   3.237   4.532   3.849
 2943SOL    HW2 8965   3.294   4.524   3.709
 2944SOL     OW 8966   2.168   4.590   4.635
 2944SOL    HW1 8967   2.153   4.587   4.730
 2944SOL    HW2 8968   2.153   4.682   4.612
 2945SOL     OW 8969   2.123   4.200   4.670
 2945SOL    HW1 8970   2.067   4.260   4.719
 2945SOL    HW2 8971   2.083   4.114   4.681
 2946SOL     OW 8972   3.005   3.978   0.170
 2946SOL    HW1 8973   3.046   4.034   0.104
 2946SOL    HW2 8974   3.057   3.897   0.168
 2947SOL     OW 8975   1.871   4.969   4.029
 2947SOL    HW1 8976   1.901   4.892   4.078
 2947SOL    HW2 8977   1.785   4.944   3.995
 2948SOL     OW 8978   2.874   4.451   4.898
 2948SOL    HW1 8979   2.872   4.537   4.941
 2948SOL    HW2 8980   2.784   4.438   4.867
 2949SOL     OW 8981   1.936   4.365   4.830
 2949SOL    HW1 8982   1.987   4.336   4.906
 2949SOL    HW2 8983   1.845   4.361   4.859
 2950SOL     OW 8984   2.735   4.392   4.173
 2950SOL    HW1 8985   2.733   4.300   4.201
 2950SOL    HW2 8986   2.662   4.400   4.112
 2951SOL     OW 8987   3.673   4.352   4.891
 2951SOL    HW1 8988   3.669   4.296   4.968
 2951SOL    HW2 8989   3.766   4.357   4.870
 2952SOL     OW 8990   2.545   4.162   4.972
 2952SOL    HW1 8991   2.624   4.153   5.025
 2952SOL    HW2 8992   2.510   4.073   4.966
 2953SOL     OW 8993   2.328   4.256   3.920
 2953SOL    HW1 8994   2.411   4.296   3.943
 2953SOL    HW2 8995   2.332   4.169   3.960
 2954SOL     OW 8996   1.928   4.807   0.162
 2954SOL    HW1 8997   2.018   4.785   0.188
 2954SOL    HW2 8998   1.932   4.822   0.068
 2955SOL     OW 8999   3.150   4.791   4.941
 2955SOL    HW1 9000   3.218   4.855   4.958
 2955SOL    HW2 9001   3.175   4.714   4.993
 2956SOL     OW 9002   3.220   4.575   4.026
 2956SOL    HW1 9003   3.140   4.525   4.040
 2956SOL    HW2 9004   3.221   4.638   4.099
 2957SOL     OW 9005   1.925   4.868   4.898
 2957SOL    HW1 9006   1.932   4.963   4.909
 2957SOL    HW2 9007   1.880   4.857   4.814
 2958SOL     OW 9008   3.535   3.762   4.145
 2958SOL    HW1 9009   3.532   3.850   4.107
 2958SOL    HW2 9010   3.575   3.708   4.077
 2959SOL     OW 9011   3.072   4.687   4.452
 2959SOL    HW1 9012   3.118   4.707   4.534
 2959SOL    HW2 9013   3.078   4.592   4.444
 2960SOL     OW 9014   3.664   3.918   4.483
 2960SOL    HW1 9015   3.691   3.861   4.555
 2960SOL    HW2 9016   3.746   3.951   4.446
 2961SOL     OW 9017   1.988   3.944   4.434
 2961SOL    HW1 9018   2.013   3.937   4.526
 2961SOL    HW2 9019   2.039   3.876   4.390
 2962SOL     OW 9020   2.646   4.765   5.006
 2962SOL    HW1 9021   2.561   4.745   5.045
 2962SOL    HW2 9022   2.625   4.816   4.928
 2963SOL     OW 9023   2.846   4.641   3.880
 2963SOL    HW1 9024   2.789   4.709   3.915
 2963SOL    HW2 9025   2.795   4.604   3.807
 2964SOL     OW 9026   3.370   4.961   4.930
 2964SOL    HW1 9027   3.338   5.044   4.897
 2964SOL    HW2 9028   3.410   4.919   4.854
 2965SOL     OW 9029   2.851   4.852   4.466
 2965SOL    HW1 9030   2.929   4.797   4.455
 2965SOL    HW2 9031   2.795   4.803   4.526
 2966SOL     OW 9032   2.885   3.957   4.622
 2966SOL    HW1 9033   2.977   3.980   4.639
 2966SOL    HW2 9034   2.839   4.041   4.624
 2967SOL     OW 9035   3.667   4.174   0.112
 2967SOL    HW1 9036   3.706   4.127   0.186
 2967SOL    HW2 9037   3.644   4.105   0.050
 2968SOL     OW 9038   1.795   4.010   3.729
 2968SOL    HW1 9039   1.790   3.972   3.817
 2968SOL    HW2 9040   1.758   4.098   3.739
 2969SOL     OW 9041   1.821   3.882   3.976
 2969SOL    HW1 9042   1.767   3.904   4.052
 2969SOL    HW2 9043   1.823   3.787   3.974
 2970SOL     OW 9044   3.519   4.582   4.876
 2970SOL    HW1 9045   3.506   4.611   4.967
 2970SOL    HW2 9046   3.577   4.506   4.883
 2971SOL     OW 9047   3.171   4.088   4.177
 2971SOL    HW1 9048   3.207   4.000   4.186
 2971SOL    HW2 9049   3.180   4.126   4.265
 2972SOL     OW 9050   2.456   4.408   4.398
 2972SOL    HW1 9051   2.520   4.337   4.401
 2972SOL    HW2 9052   2.510   4.487   4.390
 2973SOL     OW 9053   3.514   4.653   0.143
 2973SOL    HW1 9054   3.594   4.702   0.158
 2973SOL    HW2 9055   3.529   4.568   0.184
 2974SOL     OW 9056   2.649   4.695   4.589
 2974SOL    HW1 9057   2.587   4.639   4.637
 2974SOL    HW2 9058   2.648   4.661   4.500
 2975SOL     OW 9059   3.074   4.765   3.795
 2975SOL    HW1 9060   3.005   4.720   3.844
 2975SOL    HW2 9061   3.134   4.695   3.769
 2976SOL     OW 9062   1.815   4.910   4.365
 2976SOL    HW1 9063   1.896   4.959   4.349
 2976SOL    HW2 9064   1.835   4.821   4.336
 2977SOL     OW 9065   3.701   3.896   0.025
 2977SOL    HW1 9066   3.718   3.917   0.117
 2977SOL    HW2 9067   3.623   3.840   0.027
 2978SOL     OW 9068   2.213   4.193   4.236
 2978SOL    HW1 9069   2.249   4.161   4.319
 2978SOL    HW2 9070   2.243   4.129   4.171
 2979SOL     OW 9071   3.231   3.966   4.901
 2979SOL    HW1 9072   3.276   3.980   4.985
 2979SOL    HW2 9073   3.282   3.898   4.857
 2980SOL     OW 9074   2.749   3.760   4.762
 2980SOL    HW1 9075   2.749   3.785   4.854
 2980SOL    HW2 9076   2.801   3.828   4.718
 2981SOL     OW 9077   2.546   0.076   3.940
 2981SOL    HW1 9078   2.526   0.092   4.032
 2981SOL    HW2 9079   2.604  -0.000   3.941
 2982SOL     OW 9080   3.213   3.770   3.963
 2982SOL    HW1 9081   3.245   3.838   3.904
 2982SOL    HW2 9082   3.275   3.698   3.953
 2983SOL     OW 9083   3.229   4.158   4.435
 2983SOL    HW1 9084   3.324   4.147   4.444
 2983SOL    HW2 9085   3.193   4.119   4.514
 2984SOL     OW 9086   3.401   3.820   4.490
 2984SOL    HW1 9087   3.491   3.851   4.476
 2984SOL    HW2 9088   3.355   3.841   4.409
 2985SOL     OW 9089   1.960   4.746   4.151
 2985SOL    HW1 9090   2.051   4.732   4.128
 2985SOL    HW2 9091   1.919   4.660   4.147
 2986SOL     OW 9092   3.961   0.659   0.114
 2986SOL    HW1 9093   3.927   0.703   0.192
 2986SOL    HW2 9094   4.011   0.727   0.068
 2987SOL     OW 9095   4.004   0.253   0.941
 2987SOL    HW1 9096   3.986   0.230   1.032
 2987SOL    HW2 9097   4.087   0.210   0.920
 2988SOL     OW 9098   3.744   0.317   0.599
 2988SOL    HW1 9099   3.676   0.373   0.636
 2988SOL    HW2 9100   3.696   0.245   0.557
 2989SOL     OW 9101   4.247   1.210   1.155
 2989SOL    HW1 9102   4.323   1.154   1.139
 2989SOL    HW2 9103   4.225   1.194   1.247
 2990SOL     OW 9104   4.776   0.656   0.611
 2990SOL    HW1 9105   4.834   0.707   0.667
 2990SOL    HW2 9106   4.784   0.696   0.524
 2991SOL     OW 9107   4.468   1.042   1.111
 2991SOL    HW1 9108   4.543   1.094   1.138
 2991SOL    HW2 9109   4.488   1.015   1.021
 2992SOL     OW 9110   4.590   0.781   1.917
 2992SOL    HW1 9111   4.499   0.785   1.889
 2992SOL    HW2 9112   4.637   0.841   1.859
 2993SOL     OW 9113   4.357   1.073   0.638
 2993SOL    HW1 9114   4.272   1.116   0.646
 2993SOL    HW2 9115   4.340   0.982   0.664
 2994SOL     OW 9116   4.439   1.097   1.845
 2994SOL    HW1 9117   4.379   1.122   1.775
 2994SOL    HW2 9118   4.517   1.064   1.800
 2995SOL     OW 9119   4.050   1.366   1.050
 2995SOL    HW1 9120   4.128   1.315   1.072
 2995SOL    HW2 9121   4.083   1.448   1.015
 2996SOL     OW 9122   4.242   0.397   1.487
 2996SOL    HW1 9123   4.310   0.436   1.542
 2996SOL    HW2 9124   4.217   0.468   1.427
 2997SOL     OW 9125   3.980   1.695   0.501
 2997SOL    HW1 9126   4.056   1.685   0.443
 2997SOL    HW2 9127   3.956   1.605   0.524
 2998SOL     OW 9128   4.835   1.287   1.796
 2998SOL    HW1 9129   4.811   1.197   1.773
 2998SOL    HW2 9130   4.853   1.329   1.712
 2999SOL     OW 9131   3.882   1.445   0.552
 2999SOL    HW1 9132   3.817   1.494   0.602
 2999SOL    HW2 9133   3.858   1.353   0.562
 3000SOL     OW 9134   3.914   1.070   0.795
 3000SOL    HW1 9135   3.883   1.093   0.883
 3000SOL    HW2 9136   3.895   0.976   0.787
 3001SOL     OW 9137   4.317   1.772   1.455
 3001SOL    HW1 9138   4.404   1.743   1.481
 3001SOL    HW2 9139   4.259   1.733   1.521
 3002SOL     OW 9140   4.335   0.974   4.930
 3002SOL    HW1 9141   4.408   0.962   4.991
 3002SOL    HW2 9142   4.327   1.069   4.920
 3003SOL     OW 9143   3.949   0.583   0.612
 3003SOL    HW1 9144   3.961   0.491   0.637
 3003SOL    HW2 9145   3.882   0.579   0.543
 3004SOL     OW 9146   3.855   1.577   0.175
 3004SOL    HW1 9147   3.826   1.654   0.223
 3004SOL    HW2 9148   3.893   1.613   0.095
 3005SOL     OW 9149   3.757   0.773   1.592
 3005SOL    HW1 9150   3.712   0.721   1.658
 3005SOL    HW2 9151   3.791   0.709   1.529
 3006SOL     OW 9152   4.432   1.360   0.670
 3006SOL    HW1 9153   4.402   1.412   0.596
 3006SOL    HW2 9154   4.415   1.269   0.644
 3007SOL     OW 9155   4.547   0.037   0.620
 3007SOL    HW1 9156   4.605  -0.024   0.664
 3007SOL    HW2 9157   4.459   0.008   0.643
 3008SOL     OW 9158   3.832   0.991   1.279
 3008SOL    HW1 9159   3.909   0.934   1.285
 3008SOL    HW2 9160   3.843   1.037   1.196
 3009SOL     OW 9161   3.963   0.238   1.865
 3009SOL    HW1 9162   3.969   0.328   1.835
 3009SOL    HW2 9163   4.041   0.196   1.828
 3010SOL     OW 9164   4.295   0.684   0.295
 3010SOL    HW1 9165   4.279   0.668   0.388
 3010SOL    HW2 9166   4.246   0.764   0.276
 3011SOL     OW 9167   4.510   0.535   1.388
 3011SOL    HW1 9168   4.505   0.502   1.477
 3011SOL    HW2 9169   4.595   0.505   1.356
 3012SOL     OW 9170   4.695   0.774   1.507
 3012SOL    HW1 9171   4.725   0.843   1.567
 3012SOL    HW2 9172   4.601   0.767   1.523
 3013SOL     OW 9173   4.731   0.435   1.270
 3013SOL    HW1 9174   4.751   0.360   1.325
 3013SOL    HW2 9175   4.734   0.401   1.180
 3014SOL     OW 9176   4.898   0.812   0.396
 3014SOL    HW1 9177   4.976   0.771   0.432
 3014SOL    HW2 9178   4.926   0.902   0.376
 3015SOL     OW 9179   3.869   0.799   0.773
 3015SOL    HW1 9180   3.933   0.797   0.844
 3015SOL    HW2 9181   3.894   0.725   0.717
 3016SOL     OW 9182   3.881   1.849   1.624
 3016SOL    HW1 9183   3.870   1.851   1.719
 3016SOL    HW2 9184   3.853   1.936   1.595
 3017SOL     OW 9185   4.551   0.314   0.207
 3017SOL    HW1 9186   4.555   0.299   0.302
 3017SOL    HW2 9187   4.599   0.240   0.170
 3018SOL     OW 9188   4.251   0.143   0.878
 3018SOL    HW1 9189   4.306   0.216   0.849
 3018SOL    HW2 9190   4.281   0.068   0.827
 3019SOL     OW 9191   4.703   1.539   0.490
 3019SOL    HW1 9192   4.645   1.558   0.565
 3019SOL    HW2 9193   4.661   1.583   0.416
 3020SOL     OW 9194   3.990   1.847   0.910
 3020SOL    HW1 9195   3.993   1.932   0.955
 3020SOL    HW2 9196   4.019   1.866   0.821
 3021SOL     OW 9197   4.948   1.572   1.526
 3021SOL    HW1 9198   4.994   1.578   1.610
 3021SOL    HW2 9199   5.002   1.622   1.465
 3022SOL     OW 9200   4.109   0.890   0.299
 3022SOL    HW1 9201   4.027   0.852   0.331
 3022SOL    HW2 9202   4.115   0.975   0.343
 3023SOL     OW 9203   4.230   1.186   1.676
 3023SOL    HW1 9204   4.150   1.225   1.713
 3023SOL    HW2 9205   4.216   1.187   1.582
 3024SOL     OW 9206   4.726   1.799   0.127
 3024SOL    HW1 9207   4.751   1.843   0.046
 3024SOL    HW2 9208   4.791   1.730   0.138
 3025SOL     OW 9209   3.977   0.349   1.541
 3025SOL    HW1 9210   4.070   0.363   1.528
 3025SOL    HW2 9211   3.964   0.255   1.529
 3026SOL     OW 9212   4.194   1.725   0.324
 3026SOL    HW1 9213   4.243   1.699   0.245
 3026SOL    HW2 9214   4.132   1.791   0.293
 3027SOL     OW 9215   3.920   1.879   1.258
 3027SOL    HW1 9216   4.003   1.832   1.246
 3027SOL    HW2 9217   3.863   1.816   1.303
 3028SOL     OW 9218   4.638   1.669   0.977
 3028SOL    HW1 9219   4.548   1.696   0.993
 3028SOL    HW2 9220   4.691   1.733   1.025
 3029SOL     OW 9221   4.217   0.630   0.553
 3029SOL    HW1 9222   4.124   0.635   0.572
 3029SOL    HW2 9223   4.238   0.537   0.556
 3030SOL     OW 9224   4.282   0.044   0.128
 3030SOL    HW1 9225   4.298   0.066   0.036
 3030SOL    HW2 9226   4.305  -0.048   0.135
 3031SOL     OW 9227   4.500   0.222   1.794
 3031SOL    HW1 9228   4.587   0.187   1.811
 3031SOL    HW2 9229   4.445   0.186   1.863
 3032SOL     OW 9230   4.678   1.427   1.094
 3032SOL    HW1 9231   4.719   1.451   1.177
 3032SOL    HW2 9232   4.664   1.510   1.049
 3033SOL     OW 9233   4.571   1.253   0.891
 3033SOL    HW1 9234   4.577   1.320   0.959
 3033SOL    HW2 9235   4.519   1.295   0.821
 3034SOL     OW 9236   4.622   0.525   0.794
 3034SOL    HW1 9237   4.621   0.599   0.855
 3034SOL    HW2 9238   4.671   0.557   0.719
 3035SOL     OW 9239   4.260  -0.007   0.428
 3035SOL    HW1 9240   4.236   0.080   0.397
 3035SOL    HW2 9241   4.342  -0.027   0.383
 3036SOL     OW 9242   4.014   4.941   0.164
 3036SOL    HW1 9243   3.996   5.021   0.116
 3036SOL    HW2 9244   4.104   4.950   0.196
 3037SOL     OW 9245   4.593   0.264   0.471
 3037SOL    HW1 9246   4.643   0.322   0.528
 3037SOL    HW2 9247   4.572   0.189   0.527
 3038SOL     OW 9248   4.913   0.612   1.502
 3038SOL    HW1 9249   4.972   0.672   1.547
 3038SOL    HW2 9250   4.830   0.659   1.497
 3039SOL     OW 9251   4.946   1.489   0.878
 3039SOL    HW1 9252   5.028   1.455   0.843
 3039SOL    HW2 9253   4.891   1.412   0.888
 3040SOL     OW 9254   4.118   1.202   0.670
 3040SOL    HW1 9255   4.047   1.155   0.715
 3040SOL    HW2 9256   4.112   1.292   0.704
 3041SOL     OW 9257   4.879   1.670   0.683
 3041SOL    HW1 9258   4.891   1.607   0.754
 3041SOL    HW2 9259   4.819   1.627   0.622
 3042SOL     OW 9260   4.795   0.593   0.095
 3042SOL    HW1 9261   4.776   0.672   0.045
 3042SOL    HW2 9262   4.716   0.577   0.146
 3043SOL     OW 9263   3.824   0.543   1.428
 3043SOL    HW1 9264   3.876   0.474   1.470
 3043SOL    HW2 9265   3.735   0.509   1.425
 3044SOL     OW 9266   4.228   0.159   1.155
 3044SOL    HW1 9267   4.297   0.220   1.179
 3044SOL    HW2 9268   4.248   0.133   1.065
 3045SOL     OW 9269   4.397   0.364   0.785
 3045SOL    HW1 9270   4.477   0.415   0.778
 3045SOL    HW2 9271   4.359   0.365   0.697
 3046SOL     OW 9272   4.703   0.157   0.844
 3046SOL    HW1 9273   4.713   0.062   0.839
 3046SOL    HW2 9274   4.628   0.176   0.788
 3047SOL     OW 9275   4.186   1.410   0.081
 3047SOL    HW1 9276   4.135   1.380   0.156
 3047SOL    HW2 9277   4.237   1.333   0.055
 3048SOL     OW 9278   4.220   0.242   0.305
 3048SOL    HW1 9279   4.191   0.320   0.258
 3048SOL    HW2 9280   4.245   0.180   0.237
 3049SOL     OW 9281   4.785   1.454   1.345
 3049SOL    HW1 9282   4.840   1.499   1.409
 3049SOL    HW2 9283   4.703   1.437   1.392
 3050SOL     OW 9284   4.677   1.177   1.209
 3050SOL    HW1 9285   4.765   1.171   1.244
 3050SOL    HW2 9286   4.673   1.263   1.168
 3051SOL     OW 9287   4.561   0.055   1.402
 3051SOL    HW1 9288   4.627   0.114   1.441
 3051SOL    HW2 9289   4.584   0.052   1.309
 3052SOL     OW 9290   4.568   1.086   0.456
 3052SOL    HW1 9291   4.494   1.073   0.515
 3052SOL    HW2 9292   4.584   0.999   0.418
 3053SOL     OW 9293   4.063   0.836   1.310
 3053SOL    HW1 9294   4.133   0.862   1.250
 3053SOL    HW2 9295   4.068   0.741   1.313
 3054SOL     OW 9296   3.781   1.697   1.419
 3054SOL    HW1 9297   3.822   1.734   1.497
 3054SOL    HW2 9298   3.795   1.603   1.427
 3055SOL     OW 9299   4.090   1.138   0.402
 3055SOL    HW1 9300   4.102   1.161   0.494
 3055SOL    HW2 9301   4.057   1.218   0.361
 3056SOL     OW 9302   4.275   0.585   0.912
 3056SOL    HW1 9303   4.333   0.599   0.987
 3056SOL    HW2 9304   4.310   0.508   0.868
 3057SOL     OW 9305   4.912   1.348   0.521
 3057SOL    HW1 9306   4.837   1.406   0.511
 3057SOL    HW2 9307   4.949   1.340   0.433
 3058SOL     OW 9308   4.039   1.459   1.310
 3058SOL    HW1 9309   3.950   1.453   1.345
 3058SOL    HW2 9310   4.032   1.429   1.220
 3059SOL     OW 9311   4.142   0.807   1.578
 3059SOL    HW1 9312   4.233   0.783   1.558
 3059SOL    HW2 9313   4.103   0.825   1.493
 3060SOL     OW 9314   4.724   0.092   1.891
 3060SOL    HW1 9315   4.816   0.103   1.914
 3060SOL    HW2 9316   4.718   0.004   1.855
 3061SOL     OW 9317   4.187   0.111   1.764
 3061SOL    HW1 9318   4.245   0.099   1.839
 3061SOL    HW2 9319   4.246   0.123   1.690
 3062SOL     OW 9320   4.273   0.848   1.134
 3062SOL    HW1 9321   4.338   0.919   1.129
 3062SOL    HW2 9322   4.325   0.768   1.135
 3063SOL     OW 9323   0.045   0.779   1.000
 3063SOL    HW1 9324   0.018   0.691   1.028
 3063SOL    HW2 9325   0.078   0.821   1.079
 3064SOL     OW 9326   5.017   0.492   0.217
 3064SOL    HW1 9327   5.011   0.525   0.307
 3064SOL    HW2 9328   4.938   0.525   0.174
 3065SOL     OW 9329   3.968   0.195   1.205
 3065SOL    HW1 9330   3.939   0.118   1.253
 3065SOL    HW2 9331   4.063   0.188   1.203
 3066SOL     OW 9332   3.788   1.419   1.409
 3066SOL    HW1 9333   3.813   1.334   1.446
 3066SOL    HW2 9334   3.703   1.403   1.367
 3067SOL     OW 9335   4.441   0.626   1.128
 3067SOL    HW1 9336   4.471   0.611   1.218
 3067SOL    HW2 9337   4.519   0.657   1.081
 3068SOL     OW 9338   3.929   0.009   0.642
 3068SOL    HW1 9339   3.971   0.091   0.618
 3068SOL    HW2 9340   3.989  -0.059   0.611
 3069SOL     OW 9341   4.645   0.725   0.976
 3069SOL    HW1 9342   4.697   0.743   1.054
 3069SOL    HW2 9343   4.626   0.812   0.940
 3070SOL     OW 9344   4.612   1.594   1.813
 3070SOL    HW1 9345   4.591   1.505   1.839
 3070SOL    HW2 9346   4.699   1.610   1.850
 3071SOL     OW 9347   4.120   0.960   1.792
 3071SOL    HW1 9348   4.167   1.040   1.766
 3071SOL    HW2 9349   4.131   0.901   1.717
 3072SOL     OW 9350   4.843   1.228   0.882
 3072SOL    HW1 9351   4.877   1.207   0.969
 3072SOL    HW2 9352   4.748   1.226   0.892
 3073SOL     OW 9353   4.068   0.859   0.952
 3073SOL    HW1 9354   4.136   0.842   1.017
 3073SOL    HW2 9355   4.078   0.951   0.930
 3074SOL     OW 9356   4.040   0.515   1.045
 3074SOL    HW1 9357   4.109   0.557   0.993
 3074SOL    HW2 9358   4.025   0.431   1.001
 3075SOL     OW 9359   4.837   0.402   1.661
 3075SOL    HW1 9360   4.800   0.447   1.737
 3075SOL    HW2 9361   4.866   0.472   1.603
 3076SOL     OW 9362   4.773   0.231   1.455
 3076SOL    HW1 9363   4.791   0.279   1.535
 3076SOL    HW2 9364   4.854   0.183   1.437
 3077SOL     OW 9365   3.628   1.430   0.209
 3077SOL    HW1 9366   3.707   1.482   0.195
 3077SOL    HW2 9367   3.657   1.339   0.205
 3078SOL     OW 9368   3.761   1.690   0.933
 3078SOL    HW1 9369   3.840   1.743   0.927
 3078SOL    HW2 9370   3.714   1.725   1.009
 3079SOL     OW 9371   4.135   1.631   1.002
 3079SOL    HW1 9372   4.134   1.659   1.093
 3079SOL    HW2 9373   4.081   1.695   0.956
 3080SOL     OW 9374   4.734   0.714   1.235
 3080SOL    HW1 9375   4.728   0.754   1.322
 3080SOL    HW2 9376   4.753   0.622   1.251
 3081SOL     OW 9377   3.788   0.581   1.141
 3081SOL    HW1 9378   3.808   0.600   1.232
 3081SOL    HW2 9379   3.873   0.577   1.098
 3082SOL     OW 9380   3.901   0.495   1.764
 3082SOL    HW1 9381   3.808   0.518   1.761
 3082SOL    HW2 9382   3.917   0.450   1.681
 3083SOL     OW 9383   4.552   0.592   0.237
 3083SOL    HW1 9384   4.462   0.622   0.250
 3083SOL    HW2 9385   4.545   0.497   0.228
 3084SOL     OW 9386   3.906   1.551   1.732
 3084SOL    HW1 9387   3.984   1.594   1.699
 3084SOL    HW2 9388   3.875   1.607   1.803
 3085SOL     OW 9389   4.414   0.349   1.194
 3085SOL    HW1 9390   4.434   0.383   1.282
 3085SOL    HW2 9391   4.414   0.427   1.138
 3086SOL     OW 9392   4.561   1.677   1.547
 3086SOL    HW1 9393   4.582   1.657   1.639
 3086SOL    HW2 9394   4.561   1.591   1.503
 3087SOL     OW 9395   4.170   0.479   0.163
 3087SOL    HW1 9396   4.086   0.519   0.144
 3087SOL    HW2 9397   4.220   0.548   0.207
 3088SOL     OW 9398   3.874   1.168   1.484
 3088SOL    HW1 9399   3.861   1.123   1.567
 3088SOL    HW2 9400   3.848   1.104   1.418
 3089SOL     OW 9401   4.988   1.682   1.080
 3089SOL    HW1 9402   4.908   1.729   1.100
 3089SOL    HW2 9403   4.960   1.610   1.022
 3090SOL     OW 9404   3.857   1.167   1.051
 3090SOL    HW1 9405   3.922   1.236   1.052
 3090SOL    HW2 9406   3.773   1.212   1.039
 3091SOL     OW 9407   4.379   1.722   1.891
 3091SOL    HW1 9408   4.461   1.684   1.860
 3091SOL    HW2 9409   4.360   1.792   1.829
 3092SOL     OW 9410   4.695   0.073   0.140
 3092SOL    HW1 9411   4.781   0.071   0.180
 3092SOL    HW2 9412   4.711   0.061   0.046
 3093SOL     OW 9413   3.892   1.872   1.894
 3093SOL    HW1 9414   3.861   1.850   1.982
 3093SOL    HW2 9415   3.976   1.916   1.909
 3094SOL     OW 9416   4.540   1.413   1.464
 3094SOL    HW1 9417   4.485   1.414   1.543
 3094SOL    HW2 9418   4.497   1.350   1.406
 3095SOL     OW 9419   4.337   1.643   0.103
 3095SOL    HW1 9420   4.353   1.687   0.020
 3095SOL    HW2 9421   4.283   1.567   0.080
 3096SOL     OW 9422   3.999   0.305   0.668
 3096SOL    HW1 9423   3.995   0.288   0.762
 3096SOL    HW2 9424   3.908   0.302   0.639
 3097SOL     OW 9425   4.496   0.975   1.379
 3097SOL    HW1 9426   4.575   1.019   1.409
 3097SOL    HW2 9427   4.488   0.999   1.287
 3098SOL     OW 9428   4.636   0.847   0.320
 3098SOL    HW1 9429   4.727   0.835   0.346
 3098SOL    HW2 9430   4.605   0.760   0.297
 3099SOL     OW 9431   4.139   1.228   1.421
 3099SOL    HW1 9432   4.051   1.195   1.440
 3099SOL    HW2 9433   4.125   1.317   1.389
 3100SOL     OW 9434   4.939   1.079   0.677
 3100SOL    HW1 9435   4.903   1.132   0.748
 3100SOL    HW2 9436   4.914   1.125   0.597
 3101SOL     OW 9437   4.748   0.375   0.998
 3101SOL    HW1 9438   4.703   0.437   0.940
 3101SOL    HW2 9439   4.749   0.293   0.949
 3102SOL     OW 9440   4.367   1.529   0.459
 3102SOL    HW1 9441   4.438   1.559   0.402
 3102SOL    HW2 9442   4.291   1.582   0.433
 3103SOL     OW 9443   3.977   1.374   0.301
 3103SOL    HW1 9444   3.952   1.396   0.390
 3103SOL    HW2 9445   3.945   1.447   0.248
 3104SOL     OW 9446   3.861   1.003   1.707
 3104SOL    HW1 9447   3.948   0.988   1.743
 3104SOL    HW2 9448   3.836   0.919   1.668
 3105SOL     OW 9449   4.313   0.128   1.514
 3105SOL    HW1 9450   4.302   0.220   1.491
 3105SOL    HW2 9451   4.395   0.102   1.472
 3106SOL     OW 9452   3.660   0.211   0.268
 3106SOL    HW1 9453   3.631   0.183   0.355
 3106SOL    HW2 9454   3.639   0.137   0.211
 3107SOL     OW 9455   4.399   0.760   1.505
 3107SOL    HW1 9456   4.425   0.839   1.459
 3107SOL    HW2 9457   4.429   0.688   1.448
 3108SOL     OW 9458   4.473   0.448   1.643
 3108SOL    HW1 9459   4.480   0.362   1.685
 3108SOL    HW2 9460   4.509   0.509   1.708
 3109SOL     OW 9461   4.121   1.724   1.651
 3109SOL    HW1 9462   4.173   1.788   1.699
 3109SOL    HW2 9463   4.042   1.772   1.626
 3110SOL     OW 9464   4.324   0.812   0.733
 3110SOL    HW1 9465   4.293   0.759   0.807
 3110SOL    HW2 9466   4.300   0.760   0.656
 3111SOL     OW 9467   4.615   1.241   0.074
 3111SOL    HW1 9468   4.635   1.272   0.162
 3111SOL    HW2 9469   4.538   1.291   0.048
 3112SOL     OW 9470   4.391   1.752   1.025
 3112SOL    HW1 9471   4.371   1.838   1.060
 3112SOL    HW2 9472   4.306   1.711   1.011
 3113SOL     OW 9473   4.533   0.951   0.863
 3113SOL    HW1 9474   4.545   1.036   0.821
 3113SOL    HW2 9475   4.469   0.906   0.808
 3114SOL     OW 9476   4.921   0.981   0.053
 3114SOL    HW1 9477   4.921   0.986   0.148
 3114SOL    HW2 9478   4.863   0.908   0.032
 3115SOL     OW 9479   4.015   1.304   1.788
 3115SOL    HW1 9480   4.069   1.344   1.856
 3115SOL    HW2 9481   3.964   1.377   1.752
 3116SOL     OW 9482   3.802   1.191   0.575
 3116SOL    HW1 9483   3.834   1.142   0.651
 3116SOL    HW2 9484   3.783   1.124   0.510
 3117SOL     OW 9485   4.370   1.426   1.676
 3117SOL    HW1 9486   4.323   1.343   1.688
 3117SOL    HW2 9487   4.330   1.485   1.740
 3118SOL     OW 9488   4.244   0.357   0.556
 3118SOL    HW1 9489   4.159   0.331   0.592
 3118SOL    HW2 9490   4.248   0.315   0.470
 3119SOL     OW 9491   4.088   0.564   1.312
 3119SOL    HW1 9492   4.002   0.545   1.350
 3119SOL    HW2 9493   4.080   0.537   1.221
 3120SOL     OW 9494   4.566   1.606   0.716
 3120SOL    HW1 9495   4.592   1.623   0.807
 3120SOL    HW2 9496   4.508   1.529   0.722
 3121SOL     OW 9497   4.690   0.087   1.149
 3121SOL    HW1 9498   4.785   0.083   1.141
 3121SOL    HW2 9499   4.665   0.164   1.098
 3122SOL     OW 9500   4.655   1.309   0.330
 3122SOL    HW1 9501   4.659   1.378   0.395
 3122SOL    HW2 9502   4.628   1.231   0.378
 3123SOL     OW 9503   4.136   1.709   1.260
 3123SOL    HW1 9504   4.111   1.623   1.293
 3123SOL    HW2 9505   4.209   1.737   1.315
 3124SOL     OW 9506   4.550   1.648   0.280
 3124SOL    HW1 9507   4.612   1.705   0.237
 3124SOL    HW2 9508   4.477   1.640   0.218
 3125SOL     OW 9509   4.051   0.672   1.907
 3125SOL    HW1 9510   4.083   0.723   1.833
 3125SOL    HW2 9511   3.993   0.606   1.867
 3126SOL     OW 9512   3.929   0.332   2.792
 3126SOL    HW1 9513   3.915   0.242   2.822
 3126SOL    HW2 9514   3.871   0.384   2.848
 3127SOL     OW 9515   3.580   0.447   2.605
 3127SOL    HW1 9516   3.634   0.505   2.551
 3127SOL    HW2 9517   3.499   0.437   2.554
 3128SOL     OW 9518   4.361   1.207   3.183
 3128SOL    HW1 9519   4.405   1.289   3.207
 3128SOL    HW2 9520   4.361   1.207   3.087
 3129SOL     OW 9521   4.889   0.634   2.545
 3129SOL    HW1 9522   4.832   0.598   2.613
 3129SOL    HW2 9523   4.834   0.638   2.467
 3130SOL     OW 9524   4.412   1.192   2.902
 3130SOL    HW1 9525   4.330   1.208   2.856
 3130SOL    HW2 9526   4.447   1.113   2.862
 3131SOL     OW 9527   4.673   0.697   3.665
 3131SOL    HW1 9528   4.670   0.776   3.612
 3131SOL    HW2 9529   4.596   0.647   3.639
 3132SOL     OW 9530   4.430   1.036   2.536
 3132SOL    HW1 9531   4.461   1.001   2.620
 3132SOL    HW2 9532   4.355   1.090   2.559
 3133SOL     OW 9533   4.408   1.061   3.691
 3133SOL    HW1 9534   4.473   1.008   3.644
 3133SOL    HW2 9535   4.457   1.135   3.726
 3134SOL     OW 9536   4.018   1.404   2.957
 3134SOL    HW1 9537   4.095   1.427   2.905
 3134SOL    HW2 9538   3.955   1.370   2.894
 3135SOL     OW 9539   4.192   0.474   3.296
 3135SOL    HW1 9540   4.186   0.525   3.377
 3135SOL    HW2 9541   4.121   0.508   3.241
 3136SOL     OW 9542   3.895   1.708   2.378
 3136SOL    HW1 9543   3.800   1.696   2.385
 3136SOL    HW2 9544   3.930   1.620   2.377
 3137SOL     OW 9545   4.889   1.287   3.496
 3137SOL    HW1 9546   4.906   1.373   3.536
 3137SOL    HW2 9547   4.837   1.306   3.419
 3138SOL     OW 9548   4.017   1.463   2.356
 3138SOL    HW1 9549   4.109   1.475   2.332
 3138SOL    HW2 9550   4.014   1.376   2.395
 3139SOL     OW 9551   3.997   1.081   2.808
 3139SOL    HW1 9552   4.075   1.109   2.760
 3139SOL    HW2 9553   3.943   1.160   2.815
 3140SOL     OW 9554   4.423   1.886   3.256
 3140SOL    HW1 9555   4.516   1.864   3.246
 3140SOL    HW2 9556   4.376   1.809   3.224
 3141SOL     OW 9557   4.341   0.968   2.077
 3141SOL    HW1 9558   4.246   0.961   2.070
 3141SOL    HW2 9559   4.367   1.015   1.997
 3142SOL     OW 9560   3.722   0.600   2.424
 3142SOL    HW1 9561   3.693   0.668   2.364
 3142SOL    HW2 9562   3.765   0.535   2.369
 3143SOL     OW 9563   3.716   1.620   2.053
 3143SOL    HW1 9564   3.729   1.709   2.086
 3143SOL    HW2 9565   3.624   1.618   2.027
 3144SOL     OW 9566   3.784   0.711   3.481
 3144SOL    HW1 9567   3.855   0.754   3.527
 3144SOL    HW2 9568   3.724   0.682   3.551
 3145SOL     OW 9569   4.322   1.430   2.557
 3145SOL    HW1 9570   4.386   1.498   2.577
 3145SOL    HW2 9571   4.305   1.440   2.463
 3146SOL     OW 9572   4.486   0.046   2.488
 3146SOL    HW1 9573   4.510   0.113   2.553
 3146SOL    HW2 9574   4.524  -0.035   2.523
 3147SOL     OW 9575   4.031   1.019   3.112
 3147SOL    HW1 9576   3.977   1.063   3.177
 3147SOL    HW2 9577   4.002   1.054   3.028
 3148SOL     OW 9578   3.972   0.082   3.633
 3148SOL    HW1 9579   3.917   0.154   3.663
 3148SOL    HW2 9580   3.969   0.088   3.537
 3149SOL     OW 9581   4.410   0.728   2.199
 3149SOL    HW1 9582   4.394   0.809   2.150
 3149SOL    HW2 9583   4.340   0.669   2.170
 3150SOL     OW 9584   4.591   0.610   3.334
 3150SOL    HW1 9585   4.556   0.551   3.268
 3150SOL    HW2 9586   4.559   0.576   3.417
 3151SOL     OW 9587   4.689   0.918   3.486
 3151SOL    HW1 9588   4.748   0.861   3.437
 3151SOL    HW2 9589   4.636   0.961   3.419
 3152SOL     OW 9590   4.879   0.378   3.062
 3152SOL    HW1 9591   4.925   0.450   3.018
 3152SOL    HW2 9592   4.824   0.339   2.994
 3153SOL     OW 9593   4.714   0.660   2.333
 3153SOL    HW1 9594   4.634   0.639   2.381
 3153SOL    HW2 9595   4.693   0.740   2.284
 3154SOL     OW 9596   3.867   0.755   2.598
 3154SOL    HW1 9597   3.809   0.823   2.631
 3154SOL    HW2 9598   3.810   0.696   2.549
 3155SOL     OW 9599   3.904   1.812   3.412
 3155SOL    HW1 9600   3.892   1.897   3.371
 3155SOL    HW2 9601   3.856   1.751   3.356
 3156SOL     OW 9602   4.624   0.223   2.121
 3156SOL    HW1 9603   4.660   0.195   2.037
 3156SOL    HW2 9604   4.603   0.316   2.108
 3157SOL     OW 9605   4.412   0.194   2.749
 3157SOL    HW1 9606   4.388   0.224   2.836
 3157SOL    HW2 9607   4.384   0.264   2.691
 3158SOL     OW 9608   4.768   1.378   2.450
 3158SOL    HW1 9609   4.839   1.352   2.392
 3158SOL    HW2 9610   4.748   1.300   2.501
 3159SOL     OW 9611   4.169   1.746   2.810
 3159SOL    HW1 9612   4.106   1.767   2.741
 3159SOL    HW2 9613   4.232   1.818   2.807
 3160SOL     OW 9614   4.781   1.617   3.381
 3160SOL    HW1 9615   4.721   1.626   3.454
 3160SOL    HW2 9616   4.756   1.534   3.340
 3161SOL     OW 9617   4.061   0.919   2.053
 3161SOL    HW1 9618   4.071   0.945   1.961
 3161SOL    HW2 9619   4.051   0.824   2.050
 3162SOL     OW 9620   4.210   1.226   3.595
 3162SOL    HW1 9621   4.268   1.158   3.627
 3162SOL    HW2 9622   4.135   1.223   3.655
 3163SOL     OW 9623   4.935   1.861   2.044
 3163SOL    HW1 9624   4.961   1.930   2.106
 3163SOL    HW2 9625   4.970   1.890   1.960
 3164SOL     OW 9626   3.867   0.335   3.315
 3164SOL    HW1 9627   3.907   0.384   3.387
 3164SOL    HW2 9628   3.903   0.246   3.324
 3165SOL     OW 9629   4.141   1.868   2.287
 3165SOL    HW1 9630   4.067   1.813   2.312
 3165SOL    HW2 9631   4.200   1.809   2.239
 3166SOL     OW 9632   4.064   1.769   3.067
 3166SOL    HW1 9633   4.071   1.686   3.114
 3166SOL    HW2 9634   4.100   1.751   2.980
 3167SOL     OW 9635   4.765   1.649   2.743
 3167SOL    HW1 9636   4.707   1.723   2.761
 3167SOL    HW2 9637   4.707   1.579   2.715
 3168SOL     OW 9638   4.057   0.667   2.413
 3168SOL    HW1 9639   4.135   0.722   2.421
 3168SOL    HW2 9640   3.995   0.705   2.476
 3169SOL     OW 9641   4.350   0.085   1.986
 3169SOL    HW1 9642   4.407   0.040   2.049
 3169SOL    HW2 9643   4.287   0.132   2.041
 3170SOL     OW 9644   4.564   0.233   3.509
 3170SOL    HW1 9645   4.644   0.284   3.504
 3170SOL    HW2 9646   4.593   0.144   3.531
 3171SOL     OW 9647   4.617   1.621   3.043
 3171SOL    HW1 9648   4.526   1.630   3.070
 3171SOL    HW2 9649   4.614   1.557   2.971
 3172SOL     OW 9650   4.551   1.434   2.840
 3172SOL    HW1 9651   4.498   1.491   2.784
 3172SOL    HW2 9652   4.492   1.364   2.866
 3173SOL     OW 9653   4.692   0.572   2.738
 3173SOL    HW1 9654   4.636   0.582   2.816
 3173SOL    HW2 9655   4.631   0.552   2.667
 3174SOL     OW 9656   4.235   0.071   2.388
 3174SOL    HW1 9657   4.319   0.062   2.433
 3174SOL    HW2 9658   4.171   0.042   2.452
 3175SOL     OW 9659   3.937   0.083   2.091
 3175SOL    HW1 9660   4.023   0.105   2.125
 3175SOL    HW2 9661   3.934   0.125   2.005
 3176SOL     OW 9662   4.685   0.314   2.379
 3176SOL    HW1 9663   4.773   0.345   2.354
 3176SOL    HW2 9664   4.649   0.279   2.298
 3177SOL     OW 9665   4.839   0.740   3.325
 3177SOL    HW1 9666   4.770   0.676   3.341
 3177SOL    HW2 9667   4.822   0.773   3.237
 3178SOL     OW 9668   4.984   1.624   2.578
 3178SOL    HW1 9669   4.908   1.634   2.635
 3178SOL    HW2 9670   4.999   1.530   2.575
 3179SOL     OW 9671   4.214   1.191   2.638
 3179SOL    HW1 9672   4.256   1.276   2.624
 3179SOL    HW2 9673   4.153   1.181   2.565
 3180SOL     OW 9674   0.020   1.898   2.557
 3180SOL    HW1 9675   0.041   1.918   2.649
 3180SOL    HW2 9676   0.004   1.804   2.556
 3181SOL     OW 9677   4.760   0.558   1.873
 3181SOL    HW1 9678   4.816   0.554   1.951
 3181SOL    HW2 9679   4.699   0.629   1.890
 3182SOL     OW 9680   3.645   0.485   3.296
 3182SOL    HW1 9681   3.676   0.574   3.310
 3182SOL    HW2 9682   3.725   0.433   3.286
 3183SOL     OW 9683   4.298   0.304   2.974
 3183SOL    HW1 9684   4.249   0.259   3.043
 3183SOL    HW2 9685   4.236   0.366   2.937
 3184SOL     OW 9686   4.544   0.509   2.517
 3184SOL    HW1 9687   4.456   0.480   2.538
 3184SOL    HW2 9688   4.583   0.437   2.468
 3185SOL     OW 9689   4.739   0.168   2.603
 3185SOL    HW1 9690   4.720   0.222   2.526
 3185SOL    HW2 9691   4.776   0.087   2.567
 3186SOL     OW 9692   4.155   1.440   1.973
 3186SOL    HW1 9693   4.217   1.496   2.020
 3186SOL    HW2 9694   4.075   1.445   2.025
 3187SOL     OW 9695   4.176   0.199   2.163
 3187SOL    HW1 9696   4.203   0.152   2.242
 3187SOL    HW2 9697   4.150   0.285   2.194
 3188SOL     OW 9698   4.767   1.357   3.255
 3188SOL    HW1 9699   4.853   1.377   3.218
 3188SOL    HW2 9700   4.728   1.294   3.194
 3189SOL     OW 9701   4.661   1.188   3.062
 3189SOL    HW1 9702   4.575   1.186   3.021
 3189SOL    HW2 9703   4.722   1.201   2.989
 3190SOL     OW 9704   4.563   4.961   3.240
 3190SOL    HW1 9705   4.636   4.988   3.296
 3190SOL    HW2 9706   4.580   5.004   3.157
 3191SOL     OW 9707   4.763   1.110   3.668
 3191SOL    HW1 9708   4.813   1.170   3.612
 3191SOL    HW2 9709   4.739   1.038   3.610
 3192SOL     OW 9710   4.508   1.076   2.265
 3192SOL    HW1 9711   4.476   1.061   2.354
 3192SOL    HW2 9712   4.439   1.040   2.208
 3193SOL     OW 9713   4.198   0.806   3.124
 3193SOL    HW1 9714   4.256   0.812   3.199
 3193SOL    HW2 9715   4.143   0.884   3.129
 3194SOL     OW 9716   3.771   1.627   3.256
 3194SOL    HW1 9717   3.721   1.588   3.328
 3194SOL    HW2 9718   3.805   1.552   3.208
 3195SOL     OW 9719   4.063   1.190   2.412
 3195SOL    HW1 9720   3.972   1.160   2.420
 3195SOL    HW2 9721   4.095   1.148   2.332
 3196SOL     OW 9722   4.302   0.408   2.615
 3196SOL    HW1 9723   4.263   0.454   2.689
 3196SOL    HW2 9724   4.228   0.370   2.568
 3197SOL     OW 9725   4.982   1.287   2.292
 3197SOL    HW1 9726   4.972   1.335   2.210
 3197SOL    HW2 9727   5.016   1.202   2.265
 3198SOL     OW 9728   4.112   1.512   3.189
 3198SOL    HW1 9729   4.119   1.437   3.248
 3198SOL    HW2 9730   4.074   1.477   3.109
 3199SOL     OW 9731   4.220   0.671   3.500
 3199SOL    HW1 9732   4.149   0.721   3.540
 3199SOL    HW2 9733   4.268   0.734   3.447
 3200SOL     OW 9734   4.669   4.984   3.548
 3200SOL    HW1 9735   4.733   4.997   3.619
 3200SOL    HW2 9736   4.655   4.890   3.546
 3201SOL     OW 9737   4.227  -0.017   3.601
 3201SOL    HW1 9738   4.143   0.029   3.607
 3201SOL    HW2 9739   4.268   0.019   3.522
 3202SOL     OW 9740   4.326   0.782   2.886
 3202SOL    HW1 9741   4.287   0.792   2.973
 3202SOL    HW2 9742   4.252   0.767   2.828
 3203SOL     OW 9743   0.063   0.863   2.949
 3203SOL    HW1 9744  -0.014   0.904   2.912
 3203SOL    HW2 9745   0.125   0.857   2.876
 3204SOL     OW 9746   4.904   0.578   2.117
 3204SOL    HW1 9747   4.916   0.500   2.171
 3204SOL    HW2 9748   4.857   0.640   2.174
 3205SOL     OW 9749   4.189   0.211   3.216
 3205SOL    HW1 9750   4.254   0.167   3.270
 3205SOL    HW2 9751   4.184   0.300   3.252
 3206SOL     OW 9752   3.807   1.378   3.140
 3206SOL    HW1 9753   3.868   1.380   3.066
 3206SOL    HW2 9754   3.722   1.356   3.101
 3207SOL     OW 9755   4.541   0.629   2.959
 3207SOL    HW1 9756   4.510   0.571   3.028
 3207SOL    HW2 9757   4.464   0.679   2.932
 3208SOL     OW 9758   4.014   5.000   2.545
 3208SOL    HW1 9759   3.924   5.017   2.573
 3208SOL    HW2 9760   4.007   4.923   2.489
 3209SOL     OW 9761   4.756   0.839   2.802
 3209SOL    HW1 9762   4.829   0.864   2.745
 3209SOL    HW2 9763   4.742   0.746   2.785
 3210SOL     OW 9764   4.601   1.638   3.589
 3210SOL    HW1 9765   4.609   1.574   3.659
 3210SOL    HW2 9766   4.507   1.652   3.580
 3211SOL     OW 9767   3.995   0.822   3.618
 3211SOL    HW1 9768   3.997   0.813   3.713
 3211SOL    HW2 9769   3.964   0.911   3.603
 3212SOL     OW 9770   0.293   0.190   2.131
 3212SOL    HW1 9771   0.377   0.216   2.169
 3212SOL    HW2 9772   0.293   0.231   2.044
 3213SOL     OW 9773   4.774   1.267   2.819
 3213SOL    HW1 9774   4.710   1.338   2.823
 3213SOL    HW2 9775   4.755   1.222   2.737
 3214SOL     OW 9776   4.068   0.760   2.783
 3214SOL    HW1 9777   4.044   0.842   2.826
 3214SOL    HW2 9778   4.004   0.750   2.712
 3215SOL     OW 9779   4.140   0.497   2.837
 3215SOL    HW1 9780   4.114   0.586   2.810
 3215SOL    HW2 9781   4.065   0.442   2.811
 3216SOL     OW 9782   4.821   0.339   3.534
 3216SOL    HW1 9783   4.884   0.284   3.581
 3216SOL    HW2 9784   4.792   0.403   3.599
 3217SOL     OW 9785   4.968   0.258   3.288
 3217SOL    HW1 9786   4.910   0.284   3.360
 3217SOL    HW2 9787   4.930   0.301   3.211
 3218SOL     OW 9788   3.811   1.216   1.974
 3218SOL    HW1 9789   3.844   1.291   2.023
 3218SOL    HW2 9790   3.866   1.213   1.896
 3219SOL     OW 9791   3.754   1.788   2.769
 3219SOL    HW1 9792   3.737   1.788   2.863
 3219SOL    HW2 9793   3.706   1.863   2.735
 3220SOL     OW 9794   4.232   1.481   2.811
 3220SOL    HW1 9795   4.218   1.575   2.817
 3220SOL    HW2 9796   4.254   1.466   2.719
 3221SOL     OW 9797   4.738   0.800   3.077
 3221SOL    HW1 9798   4.755   0.834   2.989
 3221SOL    HW2 9799   4.672   0.732   3.063
 3222SOL     OW 9800   3.794   0.470   2.990
 3222SOL    HW1 9801   3.863   0.513   3.042
 3222SOL    HW2 9802   3.723   0.534   2.988
 3223SOL     OW 9803   3.948   0.489   3.522
 3223SOL    HW1 9804   3.962   0.501   3.615
 3223SOL    HW2 9805   3.899   0.567   3.494
 3224SOL     OW 9806   4.580   0.493   2.140
 3224SOL    HW1 9807   4.645   0.536   2.196
 3224SOL    HW2 9808   4.508   0.554   2.135
 3225SOL     OW 9809   3.924   1.454   3.551
 3225SOL    HW1 9810   3.908   1.488   3.639
 3225SOL    HW2 9811   4.001   1.502   3.521
 3226SOL     OW 9812   4.430   0.472   3.155
 3226SOL    HW1 9813   4.352   0.477   3.210
 3226SOL    HW2 9814   4.412   0.399   3.095
 3227SOL     OW 9815   4.686   1.820   3.215
 3227SOL    HW1 9816   4.729   1.768   3.283
 3227SOL    HW2 9817   4.673   1.758   3.143
 3228SOL     OW 9818   4.214   0.575   2.106
 3228SOL    HW1 9819   4.166   0.515   2.163
 3228SOL    HW2 9820   4.152   0.598   2.037
 3229SOL     OW 9821   3.897   1.177   3.310
 3229SOL    HW1 9822   3.982   1.216   3.331
 3229SOL    HW2 9823   3.848   1.246   3.266
 3230SOL     OW 9824   4.928   1.780   2.961
 3230SOL    HW1 9825   4.948   1.742   3.046
 3230SOL    HW2 9826   4.876   1.714   2.915
 3231SOL     OW 9827   3.812   1.284   2.822
 3231SOL    HW1 9828   3.730   1.236   2.833
 3231SOL    HW2 9829   3.786   1.366   2.780
 3232SOL     OW 9830   4.330   1.690   3.611
 3232SOL    HW1 9831   4.320   1.785   3.618
 3232SOL    HW2 9832   4.258   1.662   3.554
 3233SOL     OW 9833   3.890   1.829   3.692
 3233SOL    HW1 9834   3.862   1.920   3.699
 3233SOL    HW2 9835   3.897   1.814   3.597
 3234SOL     OW 9836   4.496   1.420   3.286
 3234SOL    HW1 9837   4.590   1.405   3.278
 3234SOL    HW2 9838   4.478   1.407   3.379
 3235SOL     OW 9839   4.333   1.715   2.160
 3235SOL    HW1 9840   4.415   1.750   2.196
 3235SOL    HW2 9841   4.345   1.720   2.065
 3236SOL     OW 9842   4.057   0.288   2.547
 3236SOL    HW1 9843   4.002   0.310   2.622
 3236SOL    HW2 9844   4.049   0.193   2.539
 3237SOL     OW 9845   4.549   1.032   3.280
 3237SOL    HW1 9846   4.475   1.090   3.262
 3237SOL    HW2 9847   4.612   1.051   3.211
 3238SOL     OW 9848   4.681   0.874   2.164
 3238SOL    HW1 9849   4.629   0.950   2.190
 3238SOL    HW2 9850   4.636   0.840   2.087
 3239SOL     OW 9851   4.146   1.286   3.337
 3239SOL    HW1 9852   4.215   1.241   3.289
 3239SOL    HW2 9853   4.166   1.269   3.429
 3240SOL     OW 9854   4.723   1.136   2.582
 3240SOL    HW1 9855   4.785   1.064   2.569
 3240SOL    HW2 9856   4.640   1.102   2.549
 3241SOL     OW 9857   4.727   0.295   2.844
 3241SOL    HW1 9858   4.734   0.240   2.766
 3241SOL    HW2 9859   4.719   0.384   2.811
 3242SOL     OW 9860   4.281   1.479   2.286
 3242SOL    HW1 9861   4.300   1.565   2.249
 3242SOL    HW2 9862   4.348   1.422   2.249
 3243SOL     OW 9863   3.912   1.440   2.100
 3243SOL    HW1 9864   3.930   1.450   2.194
 3243SOL    HW2 9865   3.840   1.502   2.084
 3244SOL     OW 9866   3.860   1.062   3.575
 3244SOL    HW1 9867   3.769   1.059   3.602
 3244SOL    HW2 9868   3.858   1.097   3.486
 3245SOL     OW 9869   4.364   0.091   3.386
 3245SOL    HW1 9870   4.424   0.152   3.429
 3245SOL    HW2 9871   4.421   0.034   3.334
 3246SOL     OW 9872   3.718   0.323   1.961
 3246SOL    HW1 9873   3.802   0.288   1.930
 3246SOL    HW2 9874   3.659   0.317   1.886
 3247SOL     OW 9875   3.751   0.247   2.225
 3247SOL    HW1 9876   3.826   0.194   2.199
 3247SOL    HW2 9877   3.719   0.285   2.143
 3248SOL     OW 9878   4.392   0.809   3.324
 3248SOL    HW1 9879   4.442   0.890   3.312
 3248SOL    HW2 9880   4.458   0.740   3.323
 3249SOL     OW 9881   4.464   0.537   3.563
 3249SOL    HW1 9882   4.457   0.444   3.582
 3249SOL    HW2 9883   4.374   0.568   3.560
 3250SOL     OW 9884   4.114   1.635   3.446
 3250SOL    HW1 9885   4.049   1.706   3.440
 3250SOL    HW2 9886   4.120   1.602   3.356
 3251SOL     OW 9887   4.284   0.816   2.430
 3251SOL    HW1 9888   4.341   0.884   2.467
 3251SOL    HW2 9889   4.335   0.778   2.359
 3252SOL     OW 9890   4.588   1.330   1.918
 3252SOL    HW1 9891   4.676   1.311   1.885
 3252SOL    HW2 9892   4.535   1.255   1.892
 3253SOL     OW 9893   4.567   1.841   2.797
 3253SOL    HW1 9894   4.629   1.902   2.836
 3253SOL    HW2 9895   4.484   1.889   2.797
 3254SOL     OW 9896   4.507   0.961   2.787
 3254SOL    HW1 9897   4.595   0.923   2.798
 3254SOL    HW2 9898   4.448   0.894   2.822
 3255SOL     OW 9899   4.898   0.959   2.011
 3255SOL    HW1 9900   4.829   0.923   2.067
 3255SOL    HW2 9901   4.857   0.966   1.925
 3256SOL     OW 9902   3.995   1.198   3.770
 3256SOL    HW1 9903   3.938   1.189   3.846
 3256SOL    HW2 9904   3.947   1.158   3.698
 3257SOL     OW 9905   3.813   1.099   2.420
 3257SOL    HW1 9906   3.797   1.059   2.335
 3257SOL    HW2 9907   3.790   1.030   2.483
 3258SOL     OW 9908   4.444   1.366   3.543
 3258SOL    HW1 9909   4.489   1.343   3.625
 3258SOL    HW2 9910   4.354   1.337   3.557
 3259SOL     OW 9911   4.087   0.422   2.304
 3259SOL    HW1 9912   4.072   0.367   2.381
 3259SOL    HW2 9913   4.074   0.511   2.336
 3260SOL     OW 9914   4.040   0.584   3.087
 3260SOL    HW1 9915   4.083   0.668   3.103
 3260SOL    HW2 9916   4.080   0.550   3.007
 3261SOL     OW 9917   4.477   1.638   2.640
 3261SOL    HW1 9918   4.497   1.705   2.705
 3261SOL    HW2 9919   4.487   1.682   2.556
 3262SOL     OW 9920   4.607   0.073   2.995
 3262SOL    HW1 9921   4.644   0.149   2.951
 3262SOL    HW2 9922   4.562   0.024   2.926
 3263SOL     OW 9923   4.495   1.344   2.178
 3263SOL    HW1 9924   4.527   1.346   2.088
 3263SOL    HW2 9925   4.511   1.255   2.208
 3264SOL     OW 9926   4.366   1.624   3.165
 3264SOL    HW1 9927   4.412   1.556   3.215
 3264SOL    HW2 9928   4.275   1.594   3.162
 3265SOL     OW 9929   3.815   1.002   2.160
 3265SOL    HW1 9930   3.901   0.972   2.130
 3265SOL    HW2 9931   3.791   1.071   2.097
 3266SOL     OW 9932   4.599   1.555   2.327
 3266SOL    HW1 9933   4.664   1.507   2.378
 3266SOL    HW2 9934   4.563   1.491   2.266
 3267SOL     OW 9935   3.912   0.534   3.805
 3267SOL    HW1 9936   3.828   0.523   3.850
 3267SOL    HW2 9937   3.939   0.623   3.826
 3268SOL     OW 9938   4.017   0.324   4.791
 3268SOL    HW1 9939   3.956   0.391   4.821
 3268SOL    HW2 9940   4.013   0.328   4.696
 3269SOL     OW 9941   3.717   0.340   4.258
 3269SOL    HW1 9942   3.783   0.339   4.327
 3269SOL    HW2 9943   3.748   0.276   4.194
 3270SOL     OW 9944   4.348   1.248   4.894
 3270SOL    HW1 9945   4.423   1.248   4.835
 3270SOL    HW2 9946   4.278   1.290   4.844
 3271SOL     OW 9947   4.842   0.673   4.479
 3271SOL    HW1 9948   4.936   0.685   4.463
 3271SOL    HW2 9949   4.802   0.676   4.392
 3272SOL     OW 9950   4.581   1.237   4.734
 3272SOL    HW1 9951   4.664   1.219   4.779
 3272SOL    HW2 9952   4.568   1.161   4.677
 3273SOL     OW 9953   4.395   0.956   4.357
 3273SOL    HW1 9954   4.464   0.974   4.421
 3273SOL    HW2 9955   4.429   0.992   4.275
 3274SOL     OW 9956   4.120   1.395   4.805
 3274SOL    HW1 9957   4.119   1.429   4.894
 3274SOL    HW2 9958   4.030   1.370   4.787
 3275SOL     OW 9959   0.276   1.592   4.954
 3275SOL    HW1 9960   0.284   1.686   4.937
 3275SOL    HW2 9961   0.304   1.551   4.872
 3276SOL     OW 9962   3.893   1.670   4.288
 3276SOL    HW1 9963   3.925   1.752   4.325
 3276SOL    HW2 9964   3.870   1.617   4.364
 3277SOL     OW 9965   4.118   1.353   4.317
 3277SOL    HW1 9966   4.127   1.263   4.348
 3277SOL    HW2 9967   4.112   1.406   4.397
 3278SOL     OW 9968   3.977   1.068   4.622
 3278SOL    HW1 9969   4.023   1.091   4.541
 3278SOL    HW2 9970   4.015   0.985   4.648
 3279SOL     OW 9971   4.263   0.885   3.844
 3279SOL    HW1 9972   4.177   0.928   3.853
 3279SOL    HW2 9973   4.315   0.947   3.794
 3280SOL     OW 9974   3.867   0.604   4.288
 3280SOL    HW1 9975   3.797   0.557   4.244
 3280SOL    HW2 9976   3.901   0.542   4.353
 3281SOL     OW 9977   3.863   1.574   3.792
 3281SOL    HW1 9978   3.862   1.666   3.764
 3281SOL    HW2 9979   3.772   1.557   3.818
 3282SOL     OW 9980   4.326   1.259   4.568
 3282SOL    HW1 9981   4.402   1.289   4.519
 3282SOL    HW2 9982   4.272   1.338   4.579
 3283SOL     OW 9983   4.499   5.020   4.161
 3283SOL    HW1 9984   4.497   4.925   4.158
 3283SOL    HW2 9985   4.546   5.045   4.081
 3284SOL     OW 9986   3.974   1.020   0.090
 3284SOL    HW1 9987   4.025   0.990   0.164
 3284SOL    HW2 9988   4.000   0.964   0.017
 3285SOL     OW 9989   4.286   0.647   3.969
 3285SOL    HW1 9990   4.220   0.663   4.036
 3285SOL    HW2 9991   4.288   0.728   3.918
 3286SOL     OW 9992   4.708   0.674   4.236
 3286SOL    HW1 9993   4.647   0.627   4.292
 3286SOL    HW2 9994   4.681   0.652   4.147
 3287SOL     OW 9995   3.779   0.852   4.376
 3287SOL    HW1 9996   3.830   0.918   4.331
 3287SOL    HW2 9997   3.817   0.769   4.349
 3288SOL     OW 9998   4.643   0.351   3.989
 3288SOL    HW1 9999   4.693   0.389   3.917
 3288SOL    HW210000   4.636   0.258   3.968
 3289SOL     OW10001   4.338   0.115   4.864
 3289SOL    HW110002   4.355   0.198   4.907
 3289SOL    HW210003   4.282   0.137   4.789
 3290SOL     OW10004   4.685   1.498   4.186
 3290SOL    HW110005   4.685   1.470   4.278
 3290SOL    HW210006   4.778   1.496   4.161
 3291SOL     OW10007   4.108   1.749   4.598
 3291SOL    HW110008   4.016   1.775   4.604
 3291SOL    HW210009   4.156   1.821   4.638
 3292SOL     OW10010   3.971   0.792   3.894
 3292SOL    HW110011   3.903   0.852   3.924
 3292SOL    HW210012   4.017   0.766   3.974
 3293SOL     OW10013   4.724   1.714   3.891
 3293SOL    HW110014   4.716   1.790   3.833
 3293SOL    HW210015   4.815   1.686   3.879
 3294SOL     OW10016   4.117   1.677   4.125
 3294SOL    HW110017   4.158   1.752   4.169
 3294SOL    HW210018   4.035   1.663   4.173
 3295SOL     OW10019   3.946   1.691   4.949
 3295SOL    HW110020   3.866   1.693   4.896
 3295SOL    HW210021   3.979   1.781   4.946
 3296SOL     OW10022   4.637   1.753   4.707
 3296SOL    HW110023   4.731   1.745   4.717
 3296SOL    HW210024   4.607   1.664   4.688
 3297SOL     OW10025   4.074   0.709   4.140
 3297SOL    HW110026   3.996   0.670   4.179
 3297SOL    HW210027   4.128   0.736   4.214
 3298SOL     OW10028   4.383   0.040   3.823
 3298SOL    HW110029   4.330   0.089   3.886
 3298SOL    HW210030   4.330   0.037   3.744
 3299SOL     OW10031   4.567   1.499   4.648
 3299SOL    HW110032   4.505   1.497   4.575
 3299SOL    HW210033   4.562   1.411   4.686
 3300SOL     OW10034   4.747   0.490   4.667
 3300SOL    HW110035   4.783   0.543   4.595
 3300SOL    HW210036   4.655   0.515   4.671
 3301SOL     OW10037   4.254   0.051   4.297
 3301SOL    HW110038   4.338   0.034   4.254
 3301SOL    HW210039   4.238   0.144   4.281
 3302SOL     OW10040   3.996   0.029   3.915
 3302SOL    HW110041   4.077   0.072   3.941
 3302SOL    HW210042   3.994   0.036   3.820
 3303SOL     OW10043   4.602   0.263   4.259
 3303SOL    HW110044   4.560   0.180   4.238
 3303SOL    HW210045   4.619   0.304   4.174
 3304SOL     OW10046   4.934   1.581   4.514
 3304SOL    HW110047   4.932   1.626   4.598
 3304SOL    HW210048   4.955   1.650   4.451
 3305SOL     OW10049   4.164   1.105   4.422
 3305SOL    HW110050   4.224   1.147   4.484
 3305SOL    HW210051   4.217   1.037   4.380
 3306SOL     OW10052   4.966   1.824   4.377
 3306SOL    HW110053   5.014   1.861   4.451
 3306SOL    HW210054   4.876   1.853   4.390
 3307SOL     OW10055   4.781   0.472   3.782
 3307SOL    HW110056   4.866   0.484   3.826
 3307SOL    HW210057   4.755   0.561   3.758
 3308SOL     OW10058   4.541   0.514   4.370
 3308SOL    HW110059   4.529   0.519   4.464
 3308SOL    HW210060   4.556   0.422   4.352
 3309SOL     OW10061   4.823   0.196   4.413
 3309SOL    HW110062   4.742   0.215   4.367
 3309SOL    HW210063   4.883   0.266   4.386
 3310SOL     OW10064   4.089   1.440   3.875
 3310SOL    HW110065   4.016   1.497   3.851
 3310SOL    HW210066   4.074   1.359   3.826
 3311SOL     OW10067   4.209   0.189   3.980
 3311SOL    HW110068   4.207   0.218   4.071
 3311SOL    HW210069   4.198   0.268   3.928
 3312SOL     OW10070   4.804   1.171   4.889
 3312SOL    HW110071   4.852   1.100   4.933
 3312SOL    HW210072   4.745   1.205   4.956
 3313SOL     OW10073   4.506   1.068   4.138
 3313SOL    HW110074   4.566   1.011   4.090
 3313SOL    HW210075   4.517   1.154   4.098
 3314SOL     OW10076   4.107   0.826   4.949
 3314SOL    HW110077   4.187   0.878   4.949
 3314SOL    HW210078   4.120   0.760   4.882
 3315SOL     OW10079   3.873   1.081   4.239
 3315SOL    HW110080   3.833   1.127   4.312
 3315SOL    HW210081   3.927   1.146   4.195
 3316SOL     OW10082   4.230   0.525   4.550
 3316SOL    HW110083   4.191   0.553   4.633
 3316SOL    HW210084   4.166   0.465   4.512
 3317SOL     OW10085   4.956   1.448   4.150
 3317SOL    HW110086   5.045   1.472   4.176
 3317SOL    HW210087   4.960   1.353   4.136
 3318SOL     OW10088   4.374   0.847   4.692
 3318SOL    HW110089   4.367   0.886   4.779
 3318SOL    HW210090   4.284   0.848   4.658
 3319SOL     OW10091   0.030   0.876   4.708
 3319SOL    HW110092   0.084   0.812   4.755
 3319SOL    HW210093   0.066   0.876   4.619
 3320SOL     OW10094   0.028   0.429   3.908
 3320SOL    HW110095   0.108   0.482   3.903
 3320SOL    HW210096   0.046   0.366   3.978
 3321SOL     OW10097   3.968   0.147   4.993
 3321SOL    HW110098   3.881   0.185   5.001
 3321SOL    HW210099   4.015   0.207   4.934
 3322SOL     OW10100   3.694   1.249   4.896
 3322SOL    HW110101   3.644   1.170   4.879
 3322SOL    HW210102   3.724   1.241   4.986
 3323SOL     OW10103   4.486   0.587   4.634
 3323SOL    HW110104   4.469   0.677   4.662
 3323SOL    HW210105   4.400   0.553   4.610
 3324SOL     OW10106   3.988   0.045   4.390
 3324SOL    HW110107   4.077   0.048   4.355
 3324SOL    HW210108   3.970   0.135   4.419
 3325SOL     OW10109   4.764   0.845   4.681
 3325SOL    HW110110   4.854   0.873   4.701
 3325SOL    HW210111   4.775   0.778   4.613
 3326SOL     OW10112   0.385   0.255   3.831
 3326SOL    HW110113   0.431   0.340   3.835
 3326SOL    HW210114   0.325   0.264   3.757
 3327SOL     OW10115   4.738   1.408   4.447
 3327SOL    HW110116   4.681   1.440   4.518
 3327SOL    HW210117   4.820   1.455   4.459
 3328SOL     OW10118   4.109   0.825   4.614
 3328SOL    HW110119   4.091   0.742   4.659
 3328SOL    HW210120   4.122   0.800   4.522
 3329SOL     OW10121   4.115   0.602   4.786
 3329SOL    HW110122   4.023   0.585   4.807
 3329SOL    HW210123   4.164   0.534   4.834
 3330SOL     OW10124   3.706   1.234   4.007
 3330SOL    HW110125   3.784   1.272   4.047
 3330SOL    HW210126   3.648   1.215   4.081
 3331SOL     OW10127   3.838   1.799   4.627
 3331SOL    HW110128   3.784   1.780   4.703
 3331SOL    HW210129   3.801   1.880   4.591
 3332SOL     OW10130   4.167   1.493   4.559
 3332SOL    HW110131   4.148   1.461   4.647
 3332SOL    HW210132   4.146   1.586   4.562
 3333SOL     OW10133   4.730   0.810   4.953
 3333SOL    HW110134   4.656   0.862   4.984
 3333SOL    HW210135   4.729   0.820   4.858
 3334SOL     OW10136   3.870   0.539   4.884
 3334SOL    HW110137   3.777   0.559   4.873
 3334SOL    HW210138   3.891   0.572   4.972
 3335SOL     OW10139   4.562   0.619   4.006
 3335SOL    HW110140   4.468   0.626   3.993
 3335SOL    HW210141   4.581   0.526   3.999
 3336SOL     OW10142   4.356   0.343   0.010
 3336SOL    HW110143   4.427   0.337   0.074
 3336SOL    HW210144   4.286   0.390   0.056
 3337SOL     OW10145   4.167   0.423   3.857
 3337SOL    HW110146   4.218   0.498   3.887
 3337SOL    HW210147   4.081   0.460   3.837
 3338SOL     OW10148   3.796   1.207   0.162
 3338SOL    HW110149   3.857   1.261   0.212
 3338SOL    HW210150   3.849   1.135   0.128
 3339SOL     OW10151   4.912   1.769   4.726
 3339SOL    HW110152   4.890   1.822   4.803
 3339SOL    HW210153   4.986   1.815   4.685
 3340SOL     OW10154   3.874   1.311   4.698
 3340SOL    HW110155   3.810   1.293   4.767
 3340SOL    HW210156   3.912   1.225   4.677
 3341SOL     OW10157   4.341   1.576   3.865
 3341SOL    HW110158   4.335   1.614   3.777
 3341SOL    HW210159   4.259   1.527   3.875
 3342SOL     OW10160   4.555   0.973   0.087
 3342SOL    HW110161   4.575   0.940   0.174
 3342SOL    HW210162   4.580   1.066   0.090
 3343SOL     OW10163   4.681   0.874   4.032
 3343SOL    HW110164   4.706   0.844   4.119
 3343SOL    HW210165   4.634   0.800   3.993
 3344SOL     OW10166   4.773   1.134   4.425
 3344SOL    HW110167   4.697   1.095   4.469
 3344SOL    HW210168   4.757   1.229   4.429
 3345SOL     OW10169   4.793   0.208   4.693
 3345SOL    HW110170   4.774   0.302   4.698
 3345SOL    HW210171   4.804   0.191   4.600
 3346SOL     OW10172   4.309   1.483   4.164
 3346SOL    HW110173   4.249   1.548   4.127
 3346SOL    HW210174   4.253   1.420   4.208
 3347SOL     OW10175   3.962   1.313   4.095
 3347SOL    HW110176   4.008   1.362   4.026
 3347SOL    HW210177   4.006   1.339   4.176
 3348SOL     OW10178   3.804   0.277   3.715
 3348SOL    HW110179   3.848   0.356   3.747
 3348SOL    HW210180   3.741   0.310   3.651
 3349SOL     OW10181   3.802   0.161   4.074
 3349SOL    HW110182   3.889   0.133   4.043
 3349SOL    HW210183   3.743   0.135   4.003
 3350SOL     OW10184   4.219   0.748   4.368
 3350SOL    HW110185   4.260   0.672   4.411
 3350SOL    HW210186   4.290   0.812   4.361
 3351SOL     OW10187   4.560   1.275   3.772
 3351SOL    HW110188   4.553   1.297   3.865
 3351SOL    HW210189   4.644   1.230   3.765
 3352SOL     OW10190   4.403   1.802   4.876
 3352SOL    HW110191   4.344   1.846   4.815
 3352SOL    HW210192   4.479   1.779   4.822
 3353SOL     OW10193   4.569   1.002   4.581
 3353SOL    HW110194   4.645   0.953   4.612
 3353SOL    HW210195   4.494   0.955   4.615
 3354SOL     OW10196   4.877   1.004   3.891
 3354SOL    HW110197   4.812   0.952   3.938
 3354SOL    HW210198   4.829   1.041   3.817
 3355SOL     OW10199   3.761   1.225   4.437
 3355SOL    HW110200   3.797   1.275   4.510
 3355SOL    HW210201   3.667   1.218   4.457
 3356SOL     OW10202   4.189   0.309   4.237
 3356SOL    HW110203   4.116   0.327   4.296
 3356SOL    HW210204   4.240   0.390   4.235
 3357SOL     OW10205   4.409   1.496   4.427
 3357SOL    HW110206   4.322   1.516   4.463
 3357SOL    HW210207   4.397   1.498   4.332
 3358SOL     OW10208   4.835   0.021   4.895
 3358SOL    HW110209   4.804   0.076   4.822
 3358SOL    HW210210   4.926   0.046   4.907
 3359SOL     OW10211   4.524   1.332   4.040
 3359SOL    HW110212   4.588   1.379   4.092
 3359SOL    HW210213   4.440   1.370   4.064
 3360SOL     OW10214   3.792   0.966   4.006
 3360SOL    HW110215   3.825   0.994   4.091
 3360SOL    HW210216   3.746   1.042   3.971
 3361SOL     OW10217   3.954   2.547   0.182
 3361SOL    HW110218   3.866   2.525   0.212
 3361SOL    HW210219   3.974   2.630   0.225
 3362SOL     OW10220   3.933   2.141   0.944
 3362SOL    HW110221   3.894   2.215   0.990
 3362SOL    HW210222   3.858   2.093   0.908
 3363SOL     OW10223   3.633   2.256   0.664
 3363SOL    HW110224   3.687   2.327   0.630
 3363SOL    HW210225   3.664   2.178   0.618
 3364SOL     OW10226   4.397   3.133   1.167
 3364SOL    HW110227   4.444   3.050   1.157
 3364SOL    HW210228   4.419   3.163   1.255
 3365SOL     OW10229   4.861   2.387   0.643
 3365SOL    HW110230   4.949   2.423   0.655
 3365SOL    HW210231   4.827   2.431   0.565
 3366SOL     OW10232   4.576   2.921   1.177
 3366SOL    HW110233   4.668   2.929   1.155
 3366SOL    HW210234   4.537   2.870   1.106
 3367SOL     OW10235   4.459   2.626   1.760
 3367SOL    HW110236   4.424   2.695   1.816
 3367SOL    HW210237   4.517   2.672   1.700
 3368SOL     OW10238   4.424   2.863   0.711
 3368SOL    HW110239   4.342   2.908   0.694
 3368SOL    HW210240   4.416   2.779   0.666
 3369SOL     OW10241   4.473   3.062   1.779
 3369SOL    HW110242   4.439   3.136   1.728
 3369SOL    HW210243   4.399   3.001   1.783
 3370SOL     OW10244   4.151   3.225   1.086
 3370SOL    HW110245   4.236   3.185   1.108
 3370SOL    HW210246   4.174   3.300   1.032
 3371SOL     OW10247   4.160   2.298   1.518
 3371SOL    HW110248   4.209   2.218   1.500
 3371SOL    HW210249   4.121   2.322   1.434
 3372SOL     OW10250   4.008   3.580   0.520
 3372SOL    HW110251   4.076   3.571   0.454
 3372SOL    HW210252   3.996   3.491   0.555
 3373SOL     OW10253   4.865   3.149   1.706
 3373SOL    HW110254   4.872   3.159   1.801
 3373SOL    HW210255   4.881   3.236   1.671
 3374SOL     OW10256   4.009   3.327   0.619
 3374SOL    HW110257   4.092   3.307   0.661
 3374SOL    HW210258   3.944   3.276   0.668
 3375SOL     OW10259   3.968   2.958   0.852
 3375SOL    HW110260   3.963   2.976   0.946
 3375SOL    HW210261   3.922   2.874   0.842
 3376SOL     OW10262   4.223   3.688   1.536
 3376SOL    HW110263   4.252   3.644   1.456
 3376SOL    HW210264   4.130   3.666   1.542
 3377SOL     OW10265   4.217   2.830   0.015
 3377SOL    HW110266   4.258   2.800   0.096
 3377SOL    HW210267   4.232   2.924   0.013
 3378SOL     OW10268   3.808   2.436   0.553
 3378SOL    HW110269   3.892   2.392   0.540
 3378SOL    HW210270   3.830   2.529   0.562
 3379SOL     OW10271   3.646   3.459   0.017
 3379SOL    HW110272   3.627   3.479   0.109
 3379SOL    HW210273   3.739   3.481   0.006
 3380SOL     OW10274   3.762   2.565   1.651
 3380SOL    HW110275   3.791   2.511   1.725
 3380SOL    HW210276   3.787   2.514   1.574
 3381SOL     OW10277   4.278   3.288   0.708
 3381SOL    HW110278   4.289   3.363   0.649
 3381SOL    HW210279   4.366   3.254   0.720
 3382SOL     OW10280   4.522   1.869   0.635
 3382SOL    HW110281   4.525   1.776   0.659
 3382SOL    HW210282   4.437   1.880   0.593
 3383SOL     OW10283   3.886   2.808   1.266
 3383SOL    HW110284   3.957   2.744   1.262
 3383SOL    HW210285   3.905   2.869   1.195
 3384SOL     OW10286   4.014   2.193   1.719
 3384SOL    HW110287   4.071   2.233   1.653
 3384SOL    HW210288   3.942   2.155   1.670
 3385SOL     OW10289   4.308   2.664   0.234
 3385SOL    HW110290   4.249   2.641   0.306
 3385SOL    HW210291   4.302   2.590   0.174
 3386SOL     OW10292   4.499   2.434   1.441
 3386SOL    HW110293   4.472   2.401   1.526
 3386SOL    HW210294   4.591   2.458   1.452
 3387SOL     OW10295   4.639   2.734   1.579
 3387SOL    HW110296   4.687   2.792   1.639
 3387SOL    HW210297   4.702   2.666   1.557
 3388SOL     OW10298   4.741   2.273   1.170
 3388SOL    HW110299   4.758   2.232   1.255
 3388SOL    HW210300   4.743   2.201   1.107
 3389SOL     OW10301   4.823   2.535   0.414
 3389SOL    HW110302   4.733   2.543   0.380
 3389SOL    HW210303   4.877   2.528   0.336
 3390SOL     OW10304   3.816   2.729   0.846
 3390SOL    HW110305   3.866   2.653   0.876
 3390SOL    HW210306   3.764   2.697   0.773
 3391SOL     OW10307   3.761   3.768   1.608
 3391SOL    HW110308   3.668   3.774   1.585
 3391SOL    HW210309   3.799   3.850   1.576
 3392SOL     OW10310   4.501   2.294   0.241
 3392SOL    HW110311   4.438   2.251   0.298
 3392SOL    HW210312   4.562   2.225   0.215
 3393SOL     OW10313   4.316   2.117   0.853
 3393SOL    HW110314   4.243   2.140   0.796
 3393SOL    HW210315   4.390   2.105   0.793
 3394SOL     OW10316   4.627   3.364   0.474
 3394SOL    HW110317   4.718   3.337   0.488
 3394SOL    HW210318   4.591   3.376   0.562
 3395SOL     OW10319   4.101   3.645   0.800
 3395SOL    HW110320   4.171   3.697   0.760
 3395SOL    HW210321   4.045   3.620   0.726
 3396SOL     OW10322   4.926   3.411   1.639
 3396SOL    HW110323   5.013   3.412   1.680
 3396SOL    HW210324   4.942   3.438   1.548
 3397SOL     OW10325   3.979   2.795   0.290
 3397SOL    HW110326   4.051   2.844   0.330
 3397SOL    HW210327   3.930   2.861   0.241
 3398SOL     OW10328   4.182   2.995   1.722
 3398SOL    HW110329   4.122   3.047   1.775
 3398SOL    HW210330   4.187   3.041   1.638
 3399SOL     OW10331   4.836   3.681   0.212
 3399SOL    HW110332   4.755   3.663   0.165
 3399SOL    HW210333   4.896   3.611   0.184
 3400SOL     OW10334   3.807   2.106   1.569
 3400SOL    HW110335   3.812   2.121   1.474
 3400SOL    HW210336   3.735   2.161   1.598
 3401SOL     OW10337   4.198   3.581   0.319
 3401SOL    HW110338   4.243   3.533   0.250
 3401SOL    HW210339   4.166   3.661   0.276
 3402SOL     OW10340   4.037   3.624   1.170
 3402SOL    HW110341   4.132   3.612   1.179
 3402SOL    HW210342   4.010   3.666   1.252
 3403SOL     OW10343   4.636   3.642   0.866
 3403SOL    HW110344   4.678   3.671   0.947
 3403SOL    HW210345   4.684   3.687   0.796
 3404SOL     OW10346   4.152   2.593   0.456
 3404SOL    HW110347   4.074   2.643   0.482
 3404SOL    HW210348   4.127   2.502   0.469
 3405SOL     OW10349   4.327   1.990   0.072
 3405SOL    HW110350   4.237   2.003   0.044
 3405SOL    HW210351   4.360   1.921   0.014
 3406SOL     OW10352   4.480   2.118   1.793
 3406SOL    HW110353   4.568   2.092   1.766
 3406SOL    HW210354   4.469   2.207   1.759
 3407SOL     OW10355   4.535   3.477   1.200
 3407SOL    HW110356   4.598   3.431   1.255
 3407SOL    HW210357   4.566   3.568   1.199
 3408SOL     OW10358   4.525   3.299   0.991
 3408SOL    HW110359   4.528   3.374   1.051
 3408SOL    HW210360   4.472   3.233   1.038
 3409SOL     OW10361   4.677   2.291   0.818
 3409SOL    HW110362   4.655   2.359   0.882
 3409SOL    HW210363   4.745   2.331   0.764
 3410SOL     OW10364   4.294   1.920   0.494
 3410SOL    HW110365   4.295   2.000   0.442
 3410SOL    HW210366   4.271   1.851   0.432
 3411SOL     OW10367   4.006   1.910   0.257
 3411SOL    HW110368   4.009   1.947   0.168
 3411SOL    HW210369   3.918   1.874   0.265
 3412SOL     OW10370   4.565   2.125   0.524
 3412SOL    HW110371   4.661   2.130   0.519
 3412SOL    HW210372   4.548   2.035   0.552
 3413SOL     OW10373   4.780   2.517   1.477
 3413SOL    HW110374   4.872   2.498   1.494
 3413SOL    HW210375   4.776   2.534   1.382
 3414SOL     OW10376   4.957   3.370   0.911
 3414SOL    HW110377   5.022   3.303   0.891
 3414SOL    HW210378   4.946   3.418   0.829
 3415SOL     OW10379   4.186   3.011   0.692
 3415SOL    HW110380   4.114   2.987   0.750
 3415SOL    HW210381   4.207   3.102   0.714
 3416SOL     OW10382   4.924   3.508   0.674
 3416SOL    HW110383   4.862   3.580   0.657
 3416SOL    HW210384   4.894   3.437   0.617
 3417SOL     OW10385   4.795   2.358   0.026
 3417SOL    HW110386   4.791   2.303  -0.053
 3417SOL    HW210387   4.818   2.297   0.096
 3418SOL     OW10388   3.812   2.414   1.434
 3418SOL    HW110389   3.887   2.396   1.377
 3418SOL    HW210390   3.745   2.352   1.406
 3419SOL     OW10391   4.342   2.012   1.103
 3419SOL    HW110392   4.363   2.087   1.159
 3419SOL    HW210393   4.334   2.048   1.015
 3420SOL     OW10394   4.461   2.347   0.656
 3420SOL    HW110395   4.537   2.327   0.711
 3420SOL    HW210396   4.465   2.284   0.585
 3421SOL     OW10397   4.765   1.913   0.758
 3421SOL    HW110398   4.677   1.903   0.722
 3421SOL    HW210399   4.810   1.831   0.736
 3422SOL     OW10400   4.224   3.198   0.242
 3422SOL    HW110401   4.141   3.195   0.289
 3422SOL    HW210402   4.278   3.131   0.285
 3423SOL     OW10403   4.278   2.125   0.310
 3423SOL    HW110404   4.219   2.195   0.284
 3423SOL    HW210405   4.294   2.076   0.229
 3424SOL     OW10406   4.703   3.329   1.363
 3424SOL    HW110407   4.788   3.283   1.359
 3424SOL    HW210408   4.640   3.260   1.384
 3425SOL     OW10409   4.847   2.949   1.063
 3425SOL    HW110410   4.919   2.991   1.109
 3425SOL    HW210411   4.809   3.019   1.010
 3426SOL     OW10412   4.702   1.904   1.465
 3426SOL    HW110413   4.711   1.937   1.554
 3426SOL    HW210414   4.653   1.822   1.475
 3427SOL     OW10415   4.714   2.928   1.755
 3427SOL    HW110416   4.630   2.973   1.762
 3427SOL    HW210417   4.775   2.996   1.725
 3428SOL     OW10418   4.409   2.995   0.321
 3428SOL    HW110419   4.333   2.951   0.360
 3428SOL    HW210420   4.476   2.928   0.313
 3429SOL     OW10421   4.106   2.644   1.253
 3429SOL    HW110422   4.152   2.653   1.169
 3429SOL    HW210423   4.176   2.652   1.318
 3430SOL     OW10424   3.823   3.447   1.332
 3430SOL    HW110425   3.747   3.491   1.292
 3430SOL    HW210426   3.800   3.354   1.331
 3431SOL     OW10427   4.144   2.967   0.426
 3431SOL    HW110428   4.162   2.968   0.520
 3431SOL    HW210429   4.081   3.038   0.412
 3432SOL     OW10430   4.345   2.432   0.898
 3432SOL    HW110431   4.431   2.438   0.939
 3432SOL    HW210432   4.363   2.406   0.808
 3433SOL     OW10433   4.881   3.278   0.529
 3433SOL    HW110434   4.879   3.203   0.588
 3433SOL    HW210435   4.917   3.243   0.447
 3434SOL     OW10436   4.088   3.350   1.317
 3434SOL    HW110437   4.004   3.396   1.309
 3434SOL    HW210438   4.100   3.307   1.233
 3435SOL     OW10439   4.143   2.562   1.627
 3435SOL    HW110440   4.203   2.600   1.563
 3435SOL    HW210441   4.128   2.472   1.596
 3436SOL     OW10442   4.739   2.033   1.711
 3436SOL    HW110443   4.759   2.125   1.694
 3436SOL    HW210444   4.811   2.002   1.764
 3437SOL     OW10445   4.291   1.941   1.722
 3437SOL    HW110446   4.361   1.998   1.754
 3437SOL    HW210447   4.276   1.969   1.632
 3438SOL     OW10448   4.236   2.655   1.013
 3438SOL    HW110449   4.306   2.719   1.002
 3438SOL    HW210450   4.268   2.577   0.967
 3439SOL     OW10451   0.089   2.774   1.055
 3439SOL    HW110452   0.014   2.830   1.037
 3439SOL    HW210453   0.098   2.720   0.976
 3440SOL     OW10454   4.982   2.514   0.195
 3440SOL    HW110455   4.940   2.470   0.121
 3440SOL    HW210456   5.071   2.533   0.165
 3441SOL     OW10457   3.851   2.135   1.299
 3441SOL    HW110458   3.917   2.194   1.262
 3441SOL    HW210459   3.885   2.048   1.282
 3442SOL     OW10460   3.781   3.172   1.304
 3442SOL    HW110461   3.837   3.125   1.365
 3442SOL    HW210462   3.692   3.144   1.325
 3443SOL     OW10463   4.590   2.456   1.016
 3443SOL    HW110464   4.628   2.402   1.085
 3443SOL    HW210465   4.633   2.541   1.024
 3444SOL     OW10466   4.071   1.901   0.654
 3444SOL    HW110467   4.156   1.907   0.609
 3444SOL    HW210468   4.023   1.833   0.606
 3445SOL     OW10469   4.729   2.700   1.027
 3445SOL    HW110470   4.771   2.647   1.095
 3445SOL    HW210471   4.777   2.783   1.028
 3446SOL     OW10472   4.688   3.489   1.760
 3446SOL    HW110473   4.656   3.421   1.819
 3446SOL    HW210474   4.775   3.459   1.734
 3447SOL     OW10475   4.067   2.764   1.798
 3447SOL    HW110476   4.109   2.836   1.751
 3447SOL    HW210477   4.086   2.687   1.744
 3448SOL     OW10478   4.761   3.173   0.932
 3448SOL    HW110479   4.823   3.246   0.936
 3448SOL    HW210480   4.676   3.213   0.951
 3449SOL     OW10481   3.985   2.537   0.959
 3449SOL    HW110482   4.030   2.453   0.970
 3449SOL    HW210483   4.055   2.602   0.970
 3450SOL     OW10484   4.146   2.311   1.039
 3450SOL    HW110485   4.219   2.340   0.984
 3450SOL    HW210486   4.117   2.229   1.000
 3451SOL     OW10487   4.765   2.295   1.647
 3451SOL    HW110488   4.776   2.322   1.738
 3451SOL    HW210489   4.761   2.377   1.597
 3452SOL     OW10490   4.801   2.154   1.408
 3452SOL    HW110491   4.781   2.198   1.491
 3452SOL    HW210492   4.764   2.067   1.418
 3453SOL     OW10493   3.705   3.201   0.290
 3453SOL    HW110494   3.676   3.286   0.324
 3453SOL    HW210495   3.667   3.197   0.203
 3454SOL     OW10496   3.821   3.567   1.011
 3454SOL    HW110497   3.904   3.582   1.056
 3454SOL    HW210498   3.756   3.563   1.081
 3455SOL     OW10499   4.226   3.444   0.936
 3455SOL    HW110500   4.252   3.393   0.859
 3455SOL    HW210501   4.171   3.514   0.901
 3456SOL     OW10502   4.828   2.525   1.207
 3456SOL    HW110503   4.924   2.528   1.204
 3456SOL    HW210504   4.807   2.434   1.191
 3457SOL     OW10505   3.798   2.350   1.055
 3457SOL    HW110506   3.717   2.379   1.096
 3457SOL    HW210507   3.840   2.431   1.025
 3458SOL     OW10508   3.856   2.379   1.842
 3458SOL    HW110509   3.799   2.314   1.884
 3458SOL    HW210510   3.922   2.327   1.797
 3459SOL     OW10511   4.563   2.557   0.306
 3459SOL    HW110512   4.476   2.595   0.292
 3459SOL    HW210513   4.553   2.464   0.285
 3460SOL     OW10514   3.931   3.387   1.719
 3460SOL    HW110515   3.972   3.433   1.646
 3460SOL    HW210516   3.890   3.456   1.771
 3461SOL     OW10517   4.369   2.244   1.270
 3461SOL    HW110518   4.422   2.306   1.320
 3461SOL    HW210519   4.320   2.298   1.208
 3462SOL     OW10520   4.629   3.556   1.502
 3462SOL    HW110521   4.660   3.542   1.591
 3462SOL    HW210522   4.657   3.478   1.454
 3463SOL     OW10523   4.137   2.338   0.211
 3463SOL    HW110524   4.064   2.400   0.203
 3463SOL    HW210525   4.203   2.372   0.151
 3464SOL     OW10526   3.912   2.994   1.466
 3464SOL    HW110527   3.884   2.947   1.545
 3464SOL    HW210528   3.911   2.928   1.397
 3465SOL     OW10529   4.997   3.621   1.044
 3465SOL    HW110530   4.913   3.660   1.072
 3465SOL    HW210531   4.975   3.531   1.022
 3466SOL     OW10532   3.949   3.039   1.115
 3466SOL    HW110533   4.023   3.099   1.103
 3466SOL    HW210534   3.885   3.090   1.164
 3467SOL     OW10535   4.381   3.523   1.697
 3467SOL    HW110536   4.470   3.541   1.669
 3467SOL    HW210537   4.327   3.585   1.647
 3468SOL     OW10538   4.603   2.044   0.166
 3468SOL    HW110539   4.640   1.956   0.164
 3468SOL    HW210540   4.513   2.033   0.138
 3469SOL     OW10541   3.812   3.600   1.840
 3469SOL    HW110542   3.855   3.659   1.901
 3469SOL    HW210543   3.782   3.656   1.769
 3470SOL     OW10544   4.497   3.157   1.424
 3470SOL    HW110545   4.452   3.196   1.499
 3470SOL    HW210546   4.486   3.062   1.436
 3471SOL     OW10547   4.349   3.417   0.149
 3471SOL    HW110548   4.401   3.380   0.077
 3471SOL    HW210549   4.301   3.343   0.184
 3472SOL     OW10550   4.082   2.164   0.715
 3472SOL    HW110551   4.070   2.075   0.682
 3472SOL    HW210552   4.023   2.170   0.791
 3473SOL     OW10553   4.472   2.880   1.425
 3473SOL    HW110554   4.536   2.833   1.478
 3473SOL    HW210555   4.512   2.887   1.339
 3474SOL     OW10556   4.628   2.823   0.291
 3474SOL    HW110557   4.717   2.831   0.326
 3474SOL    HW210558   4.608   2.730   0.299
 3475SOL     OW10559   4.122   3.169   1.515
 3475SOL    HW110560   4.049   3.109   1.498
 3475SOL    HW210561   4.114   3.236   1.447
 3476SOL     OW10562   4.858   3.063   0.699
 3476SOL    HW110563   4.814   3.096   0.778
 3476SOL    HW210564   4.808   2.986   0.674
 3477SOL     OW10565   4.735   2.074   0.976
 3477SOL    HW110566   4.706   2.149   0.925
 3477SOL    HW210567   4.754   2.006   0.911
 3478SOL     OW10568   4.319   3.504   0.553
 3478SOL    HW110569   4.386   3.571   0.568
 3478SOL    HW210570   4.281   3.526   0.468
 3479SOL     OW10571   3.984   3.188   0.383
 3479SOL    HW110572   3.988   3.244   0.460
 3479SOL    HW210573   3.894   3.197   0.351
 3480SOL     OW10574   3.816   2.835   1.669
 3480SOL    HW110575   3.887   2.831   1.733
 3480SOL    HW210576   3.791   2.744   1.655
 3481SOL     OW10577   4.285   2.052   1.458
 3481SOL    HW110578   4.295   1.960   1.432
 3481SOL    HW210579   4.324   2.102   1.386
 3482SOL     OW10580   3.897   2.123   0.405
 3482SOL    HW110581   3.849   2.077   0.474
 3482SOL    HW210582   3.950   2.055   0.364
 3483SOL     OW10583   4.314   2.649   1.430
 3483SOL    HW110584   4.361   2.732   1.432
 3483SOL    HW210585   4.383   2.583   1.427
 3484SOL     OW10586   4.411   2.369   1.694
 3484SOL    HW110587   4.433   2.454   1.731
 3484SOL    HW210588   4.316   2.370   1.685
 3485SOL     OW10589   3.960   3.597   1.520
 3485SOL    HW110590   3.913   3.544   1.456
 3485SOL    HW210591   3.893   3.656   1.556
 3486SOL     OW10592   4.384   2.617   0.603
 3486SOL    HW110593   4.416   2.527   0.613
 3486SOL    HW210594   4.305   2.608   0.550
 3487SOL     OW10595   4.509   3.230   0.001
 3487SOL    HW110596   4.546   3.215   0.089
 3487SOL    HW210597   4.579   3.201  -0.059
 3488SOL     OW10598   4.394   3.670   1.001
 3488SOL    HW110599   4.342   3.590   0.993
 3488SOL    HW210600   4.469   3.657   0.943
 3489SOL     OW10601   4.474   2.790   0.964
 3489SOL    HW110602   4.458   2.820   0.874
 3489SOL    HW210603   4.557   2.743   0.959
 3490SOL     OW10604   4.847   3.009   4.968
 3490SOL    HW110605   4.910   2.937   4.961
 3490SOL    HW210606   4.763   2.965   4.982
 3491SOL     OW10607   4.004   3.160   1.855
 3491SOL    HW110608   4.079   3.186   1.908
 3491SOL    HW210609   3.983   3.237   1.802
 3492SOL     OW10610   3.830   3.168   0.748
 3492SOL    HW110611   3.880   3.094   0.782
 3492SOL    HW210612   3.743   3.132   0.730
 3493SOL     OW10613   4.356   3.258   1.632
 3493SOL    HW110614   4.267   3.242   1.601
 3493SOL    HW210615   4.356   3.349   1.660
 3494SOL     OW10616   4.061   2.343   0.509
 3494SOL    HW110617   4.079   2.284   0.582
 3494SOL    HW210618   4.047   2.285   0.434
 3495SOL     OW10619   4.042   2.378   1.280
 3495SOL    HW110620   4.052   2.473   1.277
 3495SOL    HW210621   4.074   2.348   1.195
 3496SOL     OW10622   4.568   3.403   0.743
 3496SOL    HW110623   4.590   3.492   0.771
 3496SOL    HW210624   4.552   3.356   0.824
 3497SOL     OW10625   4.772   1.847   1.144
 3497SOL    HW110626   4.747   1.863   1.235
 3497SOL    HW210627   4.759   1.932   1.101
 3498SOL     OW10628   4.597   3.190   0.256
 3498SOL    HW110629   4.603   3.249   0.332
 3498SOL    HW210630   4.535   3.122   0.284
 3499SOL     OW10631   4.283   3.547   1.312
 3499SOL    HW110632   4.229   3.468   1.317
 3499SOL    HW210633   4.363   3.519   1.269
 3500SOL     OW10634   4.527   3.556   0.300
 3500SOL    HW110635   4.465   3.505   0.249
 3500SOL    HW210636   4.571   3.492   0.357
 3501SOL     OW10637   3.933   2.513   2.066
 3501SOL    HW110638   3.919   2.477   1.978
 3501SOL    HW210639   3.852   2.495   2.112
 3502SOL     OW10640   3.856   2.106   2.850
 3502SOL    HW110641   3.910   2.069   2.920
 3502SOL    HW210642   3.802   2.172   2.894
 3503SOL     OW10643   3.817   2.218   2.476
 3503SOL    HW110644   3.903   2.193   2.512
 3503SOL    HW210645   3.820   2.314   2.473
 3504SOL     OW10646   4.231   3.109   3.016
 3504SOL    HW110647   4.277   3.193   3.012
 3504SOL    HW210648   4.300   3.043   3.009
 3505SOL     OW10649   4.904   2.537   2.525
 3505SOL    HW110650   4.847   2.467   2.555
 3505SOL    HW210651   4.966   2.495   2.465
 3506SOL     OW10652   4.413   2.894   2.986
 3506SOL    HW110653   4.362   2.815   2.969
 3506SOL    HW210654   4.477   2.897   2.915
 3507SOL     OW10655   4.747   2.631   3.619
 3507SOL    HW110656   4.722   2.688   3.546
 3507SOL    HW210657   4.682   2.561   3.618
 3508SOL     OW10658   4.410   2.800   2.582
 3508SOL    HW110659   4.472   2.864   2.547
 3508SOL    HW210660   4.326   2.847   2.583
 3509SOL     OW10661   4.390   2.959   3.747
 3509SOL    HW110662   4.458   3.022   3.771
 3509SOL    HW210663   4.434   2.897   3.689
 3510SOL     OW10664   3.976   3.046   2.935
 3510SOL    HW110665   4.067   3.071   2.947
 3510SOL    HW210666   3.971   3.018   2.843
 3511SOL     OW10667   4.207   2.269   3.368
 3511SOL    HW110668   4.159   2.205   3.421
 3511SOL    HW210669   4.185   2.353   3.408
 3512SOL     OW10670   3.929   3.565   2.396
 3512SOL    HW110671   3.983   3.643   2.411
 3512SOL    HW210672   3.858   3.596   2.340
 3513SOL     OW10673   4.865   3.152   3.521
 3513SOL    HW110674   4.849   3.218   3.454
 3513SOL    HW210675   4.956   3.167   3.549
 3514SOL     OW10676   3.972   3.297   2.430
 3514SOL    HW110677   4.048   3.287   2.488
 3514SOL    HW210678   3.954   3.391   2.431
 3515SOL     OW10679   3.936   2.962   2.671
 3515SOL    HW110680   4.022   2.922   2.659
 3515SOL    HW210681   3.908   2.988   2.583
 3516SOL     OW10682   4.456   3.635   3.372
 3516SOL    HW110683   4.470   3.601   3.460
 3516SOL    HW210684   4.364   3.663   3.371
 3517SOL     OW10685   4.317   2.803   1.930
 3517SOL    HW110686   4.231   2.790   1.890
 3517SOL    HW210687   4.313   2.890   1.968
 3518SOL     OW10688   3.832   2.502   2.471
 3518SOL    HW110689   3.772   2.556   2.420
 3518SOL    HW210690   3.919   2.534   2.447
 3519SOL     OW10691   3.783   3.429   2.062
 3519SOL    HW110692   3.745   3.488   2.128
 3519SOL    HW210693   3.786   3.482   1.982
 3520SOL     OW10694   3.883   2.585   3.389
 3520SOL    HW110695   3.972   2.568   3.420
 3520SOL    HW210696   3.849   2.499   3.364
 3521SOL     OW10697   4.213   3.254   2.579
 3521SOL    HW110698   4.276   3.243   2.650
 3521SOL    HW210699   4.265   3.288   2.506
 3522SOL     OW10700   4.532   1.801   2.417
 3522SOL    HW110701   4.609   1.854   2.439
 3522SOL    HW210702   4.568   1.722   2.376
 3523SOL     OW10703   3.982   2.842   3.123
 3523SOL    HW110704   3.970   2.881   3.210
 3523SOL    HW210705   3.973   2.916   3.063
 3524SOL     OW10706   4.067   2.080   3.515
 3524SOL    HW110707   4.003   2.085   3.586
 3524SOL    HW210708   4.016   2.055   3.438
 3525SOL     OW10709   4.398   2.594   2.089
 3525SOL    HW110710   4.364   2.658   2.026
 3525SOL    HW210711   4.327   2.531   2.100
 3526SOL     OW10712   4.512   2.437   3.302
 3526SOL    HW110713   4.601   2.414   3.277
 3526SOL    HW210714   4.457   2.392   3.238
 3527SOL     OW10715   4.680   2.776   3.399
 3527SOL    HW110716   4.737   2.723   3.344
 3527SOL    HW210717   4.607   2.801   3.342
 3528SOL     OW10718   4.757   2.338   3.226
 3528SOL    HW110719   4.815   2.290   3.285
 3528SOL    HW210720   4.726   2.272   3.164
 3529SOL     OW10721   4.761   2.595   2.276
 3529SOL    HW110722   4.793   2.611   2.365
 3529SOL    HW210723   4.712   2.674   2.254
 3530SOL     OW10724   3.796   2.570   2.734
 3530SOL    HW110725   3.702   2.577   2.748
 3530SOL    HW210726   3.805   2.547   2.642
 3531SOL     OW10727   3.919   3.752   3.421
 3531SOL    HW110728   3.880   3.834   3.392
 3531SOL    HW210729   3.891   3.687   3.357
 3532SOL     OW10730   4.659   2.166   2.116
 3532SOL    HW110731   4.742   2.151   2.071
 3532SOL    HW210732   4.644   2.260   2.109
 3533SOL     OW10733   4.325   1.969   2.776
 3533SOL    HW110734   4.293   2.053   2.810
 3533SOL    HW210735   4.316   1.977   2.681
 3534SOL     OW10736   4.723   3.199   2.401
 3534SOL    HW110737   4.811   3.187   2.365
 3534SOL    HW210738   4.669   3.222   2.326
 3535SOL     OW10739   4.018   3.676   2.708
 3535SOL    HW110740   3.928   3.703   2.727
 3535SOL    HW210741   4.034   3.707   2.619
 3536SOL     OW10742   4.833   3.326   3.311
 3536SOL    HW110743   4.780   3.405   3.306
 3536SOL    HW210744   4.788   3.262   3.256
 3537SOL     OW10745   3.982   2.781   2.060
 3537SOL    HW110746   4.009   2.788   1.969
 3537SOL    HW210747   3.967   2.687   2.073
 3538SOL     OW10748   4.188   3.141   3.698
 3538SOL    HW110749   4.248   3.067   3.710
 3538SOL    HW210750   4.104   3.100   3.680
 3539SOL     OW10751   0.025   3.537   2.013
 3539SOL    HW110752   0.017   3.610   2.074
 3539SOL    HW210753   0.072   3.573   1.938
 3540SOL     OW10754   3.881   2.073   3.302
 3540SOL    HW110755   3.858   2.161   3.331
 3540SOL    HW210756   3.813   2.050   3.239
 3541SOL     OW10757   4.235   3.515   2.198
 3541SOL    HW110758   4.150   3.472   2.186
 3541SOL    HW210759   4.278   3.508   2.113
 3542SOL     OW10760   4.004   3.677   3.019
 3542SOL    HW110761   3.956   3.640   3.094
 3542SOL    HW210762   4.014   3.604   2.958
 3543SOL     OW10763   4.575   3.617   2.768
 3543SOL    HW110764   4.614   3.703   2.753
 3543SOL    HW210765   4.555   3.585   2.680
 3544SOL     OW10766   4.078   2.597   2.401
 3544SOL    HW110767   4.168   2.587   2.430
 3544SOL    HW210768   4.072   2.688   2.370
 3545SOL     OW10769   4.400   2.090   2.057
 3545SOL    HW110770   4.485   2.105   2.098
 3545SOL    HW210771   4.416   2.099   1.963
 3546SOL     OW10772   4.592   2.152   3.626
 3546SOL    HW110773   4.616   2.063   3.653
 3546SOL    HW210774   4.540   2.140   3.547
 3547SOL     OW10775   4.672   3.479   2.979
 3547SOL    HW110776   4.701   3.392   2.953
 3547SOL    HW210777   4.636   3.518   2.899
 3548SOL     OW10778   4.408   3.252   2.774
 3548SOL    HW110779   4.383   3.304   2.851
 3548SOL    HW210780   4.499   3.228   2.790
 3549SOL     OW10781   4.662   2.419   2.727
 3549SOL    HW110782   4.602   2.430   2.801
 3549SOL    HW210783   4.604   2.397   2.654
 3550SOL     OW10784   4.305   1.941   2.504
 3550SOL    HW110785   4.388   1.905   2.472
 3550SOL    HW210786   4.242   1.919   2.435
 3551SOL     OW10787   4.110   2.034   1.917
 3551SOL    HW110788   4.183   1.995   1.869
 3551SOL    HW210789   4.074   2.099   1.857
 3552SOL     OW10790   4.583   2.147   2.376
 3552SOL    HW110791   4.638   2.079   2.415
 3552SOL    HW210792   4.611   2.151   2.284
 3553SOL     OW10793   4.848   2.598   3.258
 3553SOL    HW110794   4.821   2.507   3.246
 3553SOL    HW210795   4.816   2.643   3.180
 3554SOL     OW10796   4.974   3.461   2.621
 3554SOL    HW110797   4.884   3.437   2.641
 3554SOL    HW210798   5.019   3.378   2.608
 3555SOL     OW10799   4.194   2.963   2.541
 3555SOL    HW110800   4.189   3.058   2.545
 3555SOL    HW210801   4.151   2.939   2.459
 3556SOL     OW10802   4.950   3.656   2.422
 3556SOL    HW110803   4.955   3.595   2.496
 3556SOL    HW210804   4.879   3.716   2.446
 3557SOL     OW10805   4.788   2.377   1.901
 3557SOL    HW110806   4.869   2.382   1.953
 3557SOL    HW210807   4.720   2.406   1.961
 3558SOL     OW10808   3.769   2.344   3.304
 3558SOL    HW110809   3.823   2.363   3.228
 3558SOL    HW210810   3.680   2.340   3.270
 3559SOL     OW10811   4.196   2.194   2.911
 3559SOL    HW110812   4.141   2.133   2.961
 3559SOL    HW210813   4.138   2.266   2.890
 3560SOL     OW10814   4.485   2.342   2.534
 3560SOL    HW110815   4.404   2.302   2.565
 3560SOL    HW210816   4.523   2.277   2.474
 3561SOL     OW10817   4.748   1.962   2.497
 3561SOL    HW110818   4.748   2.029   2.566
 3561SOL    HW210819   4.838   1.929   2.497
 3562SOL     OW10820   4.219   3.239   2.000
 3562SOL    HW110821   4.282   3.309   1.987
 3562SOL    HW210822   4.159   3.272   2.067
 3563SOL     OW10823   4.698   3.155   3.147
 3563SOL    HW110824   4.719   3.061   3.146
 3563SOL    HW210825   4.702   3.181   3.055
 3564SOL     OW10826   4.739   3.230   2.880
 3564SOL    HW110827   4.737   3.266   2.791
 3564SOL    HW210828   4.820   3.178   2.883
 3565SOL     OW10829   4.652   2.086   3.152
 3565SOL    HW110830   4.571   2.106   3.198
 3565SOL    HW210831   4.678   1.999   3.185
 3566SOL     OW10832   4.674   2.976   3.591
 3566SOL    HW110833   4.747   3.033   3.565
 3566SOL    HW210834   4.675   2.906   3.526
 3567SOL     OW10835   4.439   2.980   2.281
 3567SOL    HW110836   4.485   2.989   2.365
 3567SOL    HW210837   4.349   2.960   2.305
 3568SOL     OW10838   4.118   2.607   3.170
 3568SOL    HW110839   4.183   2.621   3.239
 3568SOL    HW210840   4.069   2.690   3.167
 3569SOL     OW10841   3.896   3.549   3.237
 3569SOL    HW110842   3.985   3.515   3.247
 3569SOL    HW210843   3.842   3.472   3.220
 3570SOL     OW10844   4.070   2.867   2.311
 3570SOL    HW110845   3.995   2.919   2.338
 3570SOL    HW210846   4.052   2.844   2.220
 3571SOL     OW10847   4.242   2.251   2.624
 3571SOL    HW110848   4.252   2.270   2.718
 3571SOL    HW210849   4.170   2.188   2.620
 3572SOL     OW10850   4.977   3.160   2.309
 3572SOL    HW110851   5.012   3.217   2.241
 3572SOL    HW210852   4.990   3.071   2.276
 3573SOL     OW10853   4.148   3.446   3.240
 3573SOL    HW110854   4.214   3.445   3.171
 3573SOL    HW210855   4.122   3.354   3.249
 3574SOL     OW10856   4.134   2.512   3.495
 3574SOL    HW110857   4.113   2.566   3.571
 3574SOL    HW210858   4.206   2.557   3.452
 3575SOL     OW10859   4.671   1.896   3.672
 3575SOL    HW110860   4.767   1.896   3.672
 3575SOL    HW210861   4.647   1.813   3.631
 3576SOL     OW10862   4.305   1.964   3.619
 3576SOL    HW110863   4.217   1.997   3.599
 3576SOL    HW210864   4.362   2.009   3.556
 3577SOL     OW10865   4.273   2.660   2.948
 3577SOL    HW110866   4.234   2.631   3.030
 3577SOL    HW210867   4.199   2.676   2.890
 3578SOL     OW10868   0.137   2.645   2.963
 3578SOL    HW110869   0.083   2.672   2.889
 3578SOL    HW210870   0.108   2.555   2.982
 3579SOL     OW10871   4.948   2.452   2.136
 3579SOL    HW110872   4.998   2.427   2.213
 3579SOL    HW210873   4.877   2.506   2.170
 3580SOL     OW10874   4.025   2.036   3.057
 3580SOL    HW110875   4.042   1.942   3.060
 3580SOL    HW210876   3.996   2.058   3.146
 3581SOL     OW10877   3.807   3.295   3.192
 3581SOL    HW110878   3.894   3.255   3.198
 3581SOL    HW210879   3.772   3.265   3.108
 3582SOL     OW10880   4.468   2.461   2.918
 3582SOL    HW110881   4.439   2.406   2.991
 3582SOL    HW210882   4.407   2.535   2.918
 3583SOL     OW10883   3.981   1.819   2.620
 3583SOL    HW110884   3.904   1.804   2.675
 3583SOL    HW210885   3.957   1.782   2.535
 3584SOL     OW10886   4.787   2.659   2.795
 3584SOL    HW110887   4.872   2.665   2.750
 3584SOL    HW210888   4.754   2.573   2.771
 3585SOL     OW10889   4.705   3.405   3.739
 3585SOL    HW110890   4.781   3.459   3.761
 3585SOL    HW210891   4.643   3.466   3.698
 3586SOL     OW10892   4.040   2.665   3.694
 3586SOL    HW110893   4.045   2.679   3.789
 3586SOL    HW210894   3.960   2.711   3.667
 3587SOL     OW10895   0.307   2.059   2.086
 3587SOL    HW110896   0.393   2.073   2.126
 3587SOL    HW210897   0.314   2.097   1.999
 3588SOL     OW10898   4.721   3.342   2.633
 3588SOL    HW110899   4.654   3.405   2.609
 3588SOL    HW210900   4.730   3.286   2.556
 3589SOL     OW10901   4.009   2.680   2.870
 3589SOL    HW110902   3.980   2.729   2.947
 3589SOL    HW210903   3.929   2.661   2.822
 3590SOL     OW10904   4.033   2.403   2.842
 3590SOL    HW110905   4.049   2.497   2.847
 3590SOL    HW210906   3.964   2.394   2.775
 3591SOL     OW10907   4.866   2.213   3.644
 3591SOL    HW110908   4.882   2.308   3.643
 3591SOL    HW210909   4.770   2.205   3.642
 3592SOL     OW10910   4.911   2.177   3.376
 3592SOL    HW110911   5.002   2.148   3.365
 3592SOL    HW210912   4.898   2.177   3.471
 3593SOL     OW10913   3.769   3.156   2.010
 3593SOL    HW110914   3.773   3.248   2.036
 3593SOL    HW210915   3.847   3.143   1.956
 3594SOL     OW10916   3.752   3.735   2.754
 3594SOL    HW110917   3.705   3.692   2.825
 3594SOL    HW210918   3.706   3.709   2.675
 3595SOL     OW10919   4.107   3.436   2.800
 3595SOL    HW110920   4.077   3.519   2.762
 3595SOL    HW210921   4.124   3.380   2.724
 3596SOL     OW10922   4.728   2.729   3.055
 3596SOL    HW110923   4.639   2.762   3.041
 3596SOL    HW210924   4.758   2.703   2.968
 3597SOL     OW10925   3.716   2.291   2.991
 3597SOL    HW110926   3.790   2.342   3.025
 3597SOL    HW210927   3.645   2.354   2.983
 3598SOL     OW10928   3.927   2.359   3.658
 3598SOL    HW110929   3.934   2.393   3.747
 3598SOL    HW210930   4.002   2.396   3.612
 3599SOL     OW10931   4.618   2.434   2.107
 3599SOL    HW110932   4.664   2.482   2.176
 3599SOL    HW210933   4.536   2.482   2.095
 3600SOL     OW10934   4.037   3.385   3.622
 3600SOL    HW110935   3.965   3.345   3.574
 3600SOL    HW210936   4.095   3.312   3.644
 3601SOL     OW10937   4.343   2.307   3.125
 3601SOL    HW110938   4.284   2.294   3.199
 3601SOL    HW210939   4.303   2.258   3.053
 3602SOL     OW10940   4.670   3.530   3.246
 3602SOL    HW110941   4.655   3.507   3.155
 3602SOL    HW210942   4.583   3.544   3.282
 3603SOL     OW10943   4.185   2.420   2.121
 3603SOL    HW110944   4.181   2.403   2.216
 3603SOL    HW210945   4.100   2.457   2.100
 3604SOL     OW10946   3.960   2.989   3.364
 3604SOL    HW110947   3.989   2.988   3.455
 3604SOL    HW210948   3.867   3.014   3.369
 3605SOL     OW10949   0.042   3.645   3.049
 3605SOL    HW110950   0.124   3.668   3.093
 3605SOL    HW210951   0.064   3.642   2.956
 3606SOL     OW10952   3.749   3.198   2.930
 3606SOL    HW110953   3.707   3.142   2.866
 3606SOL    HW210954   3.836   3.160   2.943
 3607SOL     OW10955   4.471   3.519   3.618
 3607SOL    HW110956   4.416   3.538   3.695
 3607SOL    HW210957   4.445   3.430   3.592
 3608SOL     OW10958   3.935   3.635   3.680
 3608SOL    HW110959   3.936   3.688   3.600
 3608SOL    HW210960   3.993   3.561   3.660
 3609SOL     OW10961   4.466   3.124   3.323
 3609SOL    HW110962   4.542   3.163   3.280
 3609SOL    HW210963   4.451   3.179   3.400
 3610SOL     OW10964   4.372   3.472   1.969
 3610SOL    HW110965   4.456   3.507   1.998
 3610SOL    HW210966   4.369   3.490   1.875
 3611SOL     OW10967   4.019   2.094   2.631
 3611SOL    HW110968   3.967   2.101   2.710
 3611SOL    HW210969   4.024   2.000   2.614
 3612SOL     OW10970   4.460   2.863   3.254
 3612SOL    HW110971   4.441   2.875   3.161
 3612SOL    HW210972   4.456   2.952   3.290
 3613SOL     OW10973   4.589   2.780   2.165
 3613SOL    HW110974   4.538   2.852   2.202
 3613SOL    HW210975   4.524   2.714   2.141
 3614SOL     OW10976   4.059   3.190   3.214
 3614SOL    HW110977   4.119   3.155   3.149
 3614SOL    HW210978   4.039   3.116   3.271
 3615SOL     OW10979   4.583   2.999   2.520
 3615SOL    HW110980   4.637   3.069   2.483
 3615SOL    HW210981   4.614   2.991   2.611
 3616SOL     OW10982   4.770   2.155   2.688
 3616SOL    HW110983   4.769   2.107   2.771
 3616SOL    HW210984   4.741   2.243   2.711
 3617SOL     OW10985   4.364   3.352   2.374
 3617SOL    HW110986   4.317   3.413   2.318
 3617SOL    HW210987   4.427   3.309   2.315
 3618SOL     OW10988   4.024   3.343   2.162
 3618SOL    HW110989   4.002   3.318   2.252
 3618SOL    HW210990   3.942   3.375   2.125
 3619SOL     OW10991   3.807   2.800   3.642
 3619SOL    HW110992   3.745   2.795   3.715
 3619SOL    HW210993   3.754   2.786   3.564
 3620SOL     OW10994   4.429   2.105   3.412
 3620SOL    HW110995   4.361   2.166   3.384
 3620SOL    HW210996   4.419   2.029   3.355
 3621SOL     OW10997   3.764   2.131   1.949
 3621SOL    HW110998   3.806   2.053   1.914
 3621SOL    HW210999   3.671   2.119   1.928
 3622SOL     OW11000   3.884   2.125   2.204
 3622SOL    HW111001   3.838   2.161   2.279
 3622SOL    HW211002   3.830   2.149   2.129
 3623SOL     OW11003   4.328   2.638   3.345
 3623SOL    HW111004   4.371   2.721   3.326
 3623SOL    HW211005   4.398   2.573   3.337
 3624SOL     OW11006   4.579   2.425   3.572
 3624SOL    HW111007   4.572   2.332   3.595
 3624SOL    HW211008   4.546   2.430   3.483
 3625SOL     OW11009   4.185   3.671   3.400
 3625SOL    HW111010   4.097   3.709   3.406
 3625SOL    HW211011   4.172   3.588   3.353
 3626SOL     OW11012   4.331   2.563   2.476
 3626SOL    HW111013   4.370   2.640   2.517
 3626SOL    HW211014   4.394   2.493   2.490
 3627SOL     OW11015   4.615   3.263   1.920
 3627SOL    HW111016   4.699   3.223   1.941
 3627SOL    HW211017   4.566   3.194   1.874
 3628SOL     OW11018   4.383   3.648   2.958
 3628SOL    HW111019   4.458   3.637   2.900
 3628SOL    HW211020   4.323   3.705   2.910
 3629SOL     OW11021   4.590   2.849   2.783
 3629SOL    HW111022   4.665   2.789   2.784
 3629SOL    HW211023   4.528   2.809   2.723
 3630SOL     OW11024   4.800   2.878   2.017
 3630SOL    HW111025   4.728   2.837   2.065
 3630SOL    HW211026   4.774   2.872   1.925
 3631SOL     OW11027   3.944   3.034   3.646
 3631SOL    HW111028   3.874   3.090   3.681
 3631SOL    HW211029   3.908   2.946   3.649
 3632SOL     OW11030   3.879   3.035   2.414
 3632SOL    HW111031   3.894   3.130   2.411
 3632SOL    HW211032   3.811   3.020   2.348
 3633SOL     OW11033   4.410   3.255   3.566
 3633SOL    HW111034   4.472   3.222   3.631
 3633SOL    HW211035   4.324   3.227   3.598
 3634SOL     OW11036   4.142   2.323   2.375
 3634SOL    HW111037   4.189   2.298   2.455
 3634SOL    HW211038   4.107   2.410   2.394
 3635SOL     OW11039   3.938   2.413   3.099
 3635SOL    HW111040   3.993   2.479   3.139
 3635SOL    HW211041   3.976   2.399   3.012
 3636SOL     OW11042   4.535   3.507   2.522
 3636SOL    HW111043   4.468   3.449   2.486
 3636SOL    HW211044   4.558   3.565   2.449
 3637SOL     OW11045   4.757   2.001   2.914
 3637SOL    HW111046   4.725   2.039   2.996
 3637SOL    HW211047   4.823   1.937   2.941
 3638SOL     OW11048   4.539   3.233   2.195
 3638SOL    HW111049   4.552   3.256   2.103
 3638SOL    HW211050   4.502   3.145   2.192
 3639SOL     OW11051   4.295   3.392   2.991
 3639SOL    HW111052   4.336   3.478   2.994
 3639SOL    HW211053   4.220   3.404   2.932
 3640SOL     OW11054   3.769   2.919   2.172
 3640SOL    HW111055   3.840   2.873   2.126
 3640SOL    HW211056   3.752   2.996   2.118
 3641SOL     OW11057   4.605   3.591   2.061
 3641SOL    HW111058   4.594   3.625   2.149
 3641SOL    HW211059   4.692   3.552   2.060
 3642SOL     OW11060   3.918   2.457   3.912
 3642SOL    HW111061   3.824   2.466   3.927
 3642SOL    HW211062   3.955   2.543   3.933
 3643SOL     OW11063   3.883   2.177   4.713
 3643SOL    HW111064   3.907   2.126   4.791
 3643SOL    HW211065   3.817   2.124   4.669
 3644SOL     OW11066   3.750   2.221   4.335
 3644SOL    HW111067   3.782   2.309   4.313
 3644SOL    HW211068   3.748   2.174   4.252
 3645SOL     OW11069   4.255   3.113  -0.014
 3645SOL    HW111070   4.346   3.141  -0.028
 3645SOL    HW211071   4.235   3.142   0.075
 3646SOL     OW11072   4.853   2.496   4.341
 3646SOL    HW111073   4.837   2.544   4.422
 3646SOL    HW211074   4.944   2.514   4.319
 3647SOL     OW11075   4.517   2.912   4.769
 3647SOL    HW111076   4.551   2.897   4.857
 3647SOL    HW211077   4.438   2.857   4.764
 3648SOL     OW11078   4.439   2.833   4.370
 3648SOL    HW111079   4.427   2.738   4.376
 3648SOL    HW211080   4.458   2.849   4.277
 3649SOL     OW11081   4.058   3.254   4.843
 3649SOL    HW111082   3.980   3.216   4.882
 3649SOL    HW211083   4.131   3.206   4.882
 3650SOL     OW11084   0.243   3.351   0.043
 3650SOL    HW111085   0.284   3.346  -0.044
 3650SOL    HW211086   0.183   3.277   0.045
 3651SOL     OW11087   3.921   3.566   4.253
 3651SOL    HW111088   3.954   3.636   4.309
 3651SOL    HW211089   3.826   3.572   4.260
 3652SOL     OW11090   3.997   2.958   4.552
 3652SOL    HW111091   4.069   2.958   4.488
 3652SOL    HW211092   4.006   2.874   4.598
 3653SOL     OW11093   4.263   2.820   3.959
 3653SOL    HW111094   4.330   2.845   4.023
 3653SOL    HW211095   4.292   2.862   3.878
 3654SOL     OW11096   3.892   2.465   4.292
 3654SOL    HW111097   3.851   2.532   4.237
 3654SOL    HW211098   3.986   2.477   4.280
 3655SOL     OW11099   3.750   3.442   3.741
 3655SOL    HW111100   3.814   3.512   3.727
 3655SOL    HW211101   3.744   3.397   3.656
 3656SOL     OW11102   4.262   3.246   4.416
 3656SOL    HW111103   4.338   3.289   4.377
 3656SOL    HW211104   4.242   3.298   4.493
 3657SOL     OW11105   4.544   1.876   4.244
 3657SOL    HW111106   4.601   1.867   4.320
 3657SOL    HW211107   4.558   1.965   4.213
 3658SOL     OW11108   3.753   2.829   4.952
 3658SOL    HW111109   3.769   2.871   5.037
 3658SOL    HW211110   3.830   2.774   4.938
 3659SOL     OW11111   4.282   2.549   4.018
 3659SOL    HW111112   4.234   2.548   4.101
 3659SOL    HW211113   4.273   2.638   3.986
 3660SOL     OW11114   4.781   2.578   4.075
 3660SOL    HW111115   4.790   2.558   4.168
 3660SOL    HW211116   4.698   2.537   4.050
 3661SOL     OW11117   3.825   2.569   4.540
 3661SOL    HW111118   3.747   2.615   4.509
 3661SOL    HW211119   3.859   2.524   4.463
 3662SOL     OW11120   4.624   2.220   3.904
 3662SOL    HW111121   4.598   2.310   3.923
 3662SOL    HW211122   4.600   2.207   3.812
 3663SOL     OW11123   4.227   1.961   4.730
 3663SOL    HW111124   4.158   1.967   4.796
 3663SOL    HW211125   4.239   2.051   4.700
 3664SOL     OW11126   4.697   3.218   4.200
 3664SOL    HW111127   4.770   3.219   4.138
 3664SOL    HW211128   4.723   3.154   4.266
 3665SOL     OW11129   4.145   3.671   4.632
 3665SOL    HW111130   4.110   3.740   4.689
 3665SOL    HW211131   4.109   3.690   4.546
 3666SOL     OW11132   4.011   2.709   3.968
 3666SOL    HW111133   3.957   2.727   4.045
 3666SOL    HW211134   4.089   2.764   3.979
 3667SOL     OW11135   4.769   3.681   3.965
 3667SOL    HW111136   4.829   3.746   4.001
 3667SOL    HW211137   4.823   3.626   3.909
 3668SOL     OW11138   4.112   3.615   4.066
 3668SOL    HW111139   4.179   3.549   4.088
 3668SOL    HW211140   4.039   3.595   4.124
 3669SOL     OW11141   3.905   3.531   4.981
 3669SOL    HW111142   3.980   3.485   4.943
 3669SOL    HW211143   3.929   3.623   4.977
 3670SOL     OW11144   4.718   3.564   4.598
 3670SOL    HW111145   4.708   3.597   4.687
 3670SOL    HW211146   4.658   3.489   4.594
 3671SOL     OW11147   4.166   2.508   4.267
 3671SOL    HW111148   4.185   2.416   4.285
 3671SOL    HW211149   4.233   2.556   4.315
 3672SOL     OW11150   4.352   1.916   3.900
 3672SOL    HW111151   4.265   1.877   3.896
 3672SOL    HW211152   4.371   1.941   3.810
 3673SOL     OW11153   4.560   3.336   4.585
 3673SOL    HW111154   4.529   3.342   4.494
 3673SOL    HW211155   4.494   3.282   4.628
 3674SOL     OW11156   4.683   2.408   4.664
 3674SOL    HW111157   4.731   2.484   4.631
 3674SOL    HW211158   4.602   2.445   4.700
 3675SOL     OW11159   4.263   1.884   4.243
 3675SOL    HW111160   4.355   1.873   4.268
 3675SOL    HW211161   4.262   1.962   4.188
 3676SOL     OW11162   4.103   1.819   3.881
 3676SOL    HW111163   4.086   1.754   3.949
 3676SOL    HW211164   4.028   1.812   3.822
 3677SOL     OW11165   4.552   2.136   4.155
 3677SOL    HW111166   4.459   2.138   4.136
 3677SOL    HW211167   4.595   2.156   4.072
 3678SOL     OW11168   4.958   3.485   4.482
 3678SOL    HW111169   4.882   3.518   4.529
 3678SOL    HW211170   4.945   3.390   4.478
 3679SOL     OW11171   4.202   2.981   4.367
 3679SOL    HW111172   4.230   3.071   4.382
 3679SOL    HW211173   4.282   2.929   4.375
 3680SOL     OW11174  -0.005   3.702   4.310
 3680SOL    HW111175   0.088   3.721   4.316
 3680SOL    HW211176  -0.015   3.615   4.348
 3681SOL     OW11177   4.960   2.468   3.665
 3681SOL    HW111178   4.969   2.478   3.760
 3681SOL    HW211179   4.892   2.532   3.641
 3682SOL     OW11180   4.592   2.387   4.285
 3682SOL    HW111181   4.681   2.404   4.316
 3682SOL    HW211182   4.591   2.293   4.266
 3683SOL     OW11183   4.705   1.895   4.469
 3683SOL    HW111184   4.674   1.845   4.545
 3683SOL    HW211185   4.716   1.984   4.503
 3684SOL     OW11186   4.238   3.221   3.966
 3684SOL    HW111187   4.223   3.206   3.873
 3684SOL    HW211188   4.326   3.187   3.982
 3685SOL     OW11189   4.285   2.109   4.087
 3685SOL    HW111190   4.232   2.178   4.046
 3685SOL    HW211191   4.308   2.050   4.015
 3686SOL     OW11192   4.906   3.243   4.823
 3686SOL    HW111193   4.997   3.217   4.805
 3686SOL    HW211194   4.870   3.172   4.874
 3687SOL     OW11195   4.480   2.896   4.107
 3687SOL    HW111196   4.552   2.860   4.056
 3687SOL    HW211197   4.481   2.990   4.088
 3688SOL     OW11198   3.990   2.690   4.946
 3688SOL    HW111199   4.067   2.740   4.974
 3688SOL    HW211200   3.979   2.624   5.014
 3689SOL     OW11201   3.999   2.976   4.173
 3689SOL    HW111202   4.071   2.953   4.233
 3689SOL    HW211203   4.017   3.066   4.147
 3690SOL     OW11204   4.311   2.375   4.577
 3690SOL    HW111205   4.252   2.336   4.642
 3690SOL    HW211206   4.293   2.327   4.496
 3691SOL     OW11207   4.914   3.166   4.035
 3691SOL    HW111208   4.959   3.211   3.963
 3691SOL    HW211209   4.929   3.073   4.018
 3692SOL     OW11210   4.296   2.736   4.771
 3692SOL    HW111211   4.266   2.766   4.856
 3692SOL    HW211212   4.216   2.730   4.718
 3693SOL     OW11213   0.000   2.634   4.794
 3693SOL    HW111214   0.090   2.640   4.761
 3693SOL    HW211215  -0.002   2.693   4.869
 3694SOL     OW11216   4.980   2.448   3.941
 3694SOL    HW111217   4.916   2.507   3.982
 3694SOL    HW211218   4.974   2.367   3.993
 3695SOL     OW11219   3.832   3.115   4.916
 3695SOL    HW111220   3.749   3.150   4.948
 3695SOL    HW211221   3.810   3.033   4.874
 3696SOL     OW11222   4.445   2.504   4.785
 3696SOL    HW111223   4.400   2.589   4.782
 3696SOL    HW211224   4.400   2.452   4.719
 3697SOL     OW11225   4.008   1.906   4.350
 3697SOL    HW111226   4.101   1.897   4.330
 3697SOL    HW211227   4.001   1.992   4.393
 3698SOL     OW11228   4.830   2.641   4.573
 3698SOL    HW111229   4.876   2.645   4.658
 3698SOL    HW211230   4.773   2.718   4.574
 3699SOL     OW11231   0.237   2.061   4.003
 3699SOL    HW111232   0.322   2.098   4.027
 3699SOL    HW211233   0.254   1.967   3.991
 3700SOL     OW11234   4.818   3.250   4.568
 3700SOL    HW111235   4.853   3.246   4.657
 3700SOL    HW211236   4.728   3.280   4.578
 3701SOL     OW11237   4.025   2.712   4.675
 3701SOL    HW111238   4.005   2.698   4.768
 3701SOL    HW211239   3.962   2.657   4.629
 3702SOL     OW11240   4.149   2.253   4.758
 3702SOL    HW111241   4.056   2.249   4.736
 3702SOL    HW211242   4.154   2.228   4.850
 3703SOL     OW11243   4.874   2.144   0.189
 3703SOL    HW111244   4.920   2.104   0.264
 3703SOL    HW211245   4.787   2.104   0.190
 3704SOL     OW11246   3.733   3.164   3.774
 3704SOL    HW111247   3.752   3.115   3.854
 3704SOL    HW211248   3.748   3.256   3.797
 3705SOL     OW11249   3.786   3.755   4.668
 3705SOL    HW111250   3.718   3.722   4.727
 3705SOL    HW211251   3.817   3.678   4.621
 3706SOL     OW11252   4.155   3.395   4.616
 3706SOL    HW111253   4.126   3.356   4.698
 3706SOL    HW211254   4.155   3.489   4.632
 3707SOL     OW11255   4.652   2.588   4.957
 3707SOL    HW111256   4.705   2.515   4.988
 3707SOL    HW211257   4.587   2.548   4.899
 3708SOL     OW11258   3.718   2.407   4.739
 3708SOL    HW111259   3.759   2.465   4.675
 3708SOL    HW211260   3.775   2.330   4.741
 3709SOL     OW11261   4.540   2.457   4.024
 3709SOL    HW111262   4.540   2.432   4.116
 3709SOL    HW211263   4.453   2.492   4.008
 3710SOL     OW11264   4.345   2.443   0.064
 3710SOL    HW111265   4.410   2.391   0.110
 3710SOL    HW211266   4.380   2.454  -0.024
 3711SOL     OW11267   4.147   2.312   3.976
 3711SOL    HW111268   4.203   2.389   3.976
 3711SOL    HW211269   4.060   2.346   3.956
 3712SOL     OW11270   3.847   2.992   0.162
 3712SOL    HW111271   3.799   3.051   0.220
 3712SOL    HW211272   3.866   3.045   0.085
 3713SOL     OW11273   4.933   3.528   4.862
 3713SOL    HW111274   4.849   3.572   4.856
 3713SOL    HW211275   4.914   3.436   4.842
 3714SOL     OW11276   3.893   3.199   4.619
 3714SOL    HW111277   3.942   3.221   4.698
 3714SOL    HW211278   3.919   3.109   4.599
 3715SOL     OW11279   4.324   3.562   3.843
 3715SOL    HW111280   4.386   3.586   3.912
 3715SOL    HW211281   4.238   3.580   3.882
 3716SOL     OW11282   3.994   2.162   4.454
 3716SOL    HW111283   3.974   2.169   4.547
 3716SOL    HW211284   3.913   2.188   4.410
 3717SOL     OW11285   4.626   2.851   0.014
 3717SOL    HW111286   4.615   2.852   0.110
 3717SOL    HW211287   4.640   2.759  -0.007
 3718SOL     OW11288   4.683   2.808   3.952
 3718SOL    HW111289   4.724   2.732   3.993
 3718SOL    HW211290   4.742   2.832   3.881
 3719SOL     OW11291   4.797   3.046   4.395
 3719SOL    HW111292   4.809   3.113   4.461
 3719SOL    HW211293   4.755   2.973   4.441
 3720SOL     OW11294   4.802   2.197   4.790
 3720SOL    HW111295   4.749   2.258   4.739
 3720SOL    HW211296   4.892   2.229   4.779
 3721SOL     OW11297   4.286   3.428   4.140
 3721SOL    HW111298   4.280   3.358   4.076
 3721SOL    HW211299   4.362   3.406   4.194
 3722SOL     OW11300   4.021   3.249   4.125
 3722SOL    HW111301   4.101   3.243   4.074
 3722SOL    HW211302   3.959   3.294   4.067
 3723SOL     OW11303   3.823   2.100   3.664
 3723SOL    HW111304   3.853   2.191   3.671
 3723SOL    HW211305   3.728   2.107   3.656
 3724SOL     OW11306   3.741   2.074   4.102
 3724SOL    HW111307   3.712   1.985   4.120
 3724SOL    HW211308   3.818   2.063   4.045
 3725SOL     OW11309   4.409   2.562   4.395
 3725SOL    HW111310   4.381   2.514   4.473
 3725SOL    HW211311   4.475   2.505   4.355
 3726SOL     OW11312   4.585   3.164   3.764
 3726SOL    HW111313   4.637   3.244   3.759
 3726SOL    HW211314   4.633   3.101   3.710
 3727SOL     OW11315   4.403   3.788   4.554
 3727SOL    HW111316   4.476   3.807   4.613
 3727SOL    HW211317   4.348   3.728   4.603
 3728SOL     OW11318   4.656   2.857   4.543
 3728SOL    HW111319   4.615   2.883   4.625
 3728SOL    HW211320   4.582   2.849   4.482
 3729SOL     OW11321   4.909   2.795   3.764
 3729SOL    HW111322   4.976   2.815   3.699
 3729SOL    HW211323   4.846   2.740   3.717
 3730SOL     OW11324   3.820   3.113   4.334
 3730SOL    HW111325   3.791   3.061   4.408
 3730SOL    HW211326   3.872   3.052   4.281
 3731SOL     OW11327   4.225   2.251   4.339
 3731SOL    HW111328   4.145   2.212   4.375
 3731SOL    HW211329   4.245   2.196   4.263
 3732SOL     OW11330   4.497   3.375   4.318
 3732SOL    HW111331   4.516   3.468   4.309
 3732SOL    HW211332   4.569   3.331   4.274
 3733SOL     OW11333   4.770   1.940   4.892
 3733SOL    HW111334   4.786   2.032   4.871
 3733SOL    HW211335   4.691   1.918   4.844
 3734SOL     OW11336   4.497   3.157   4.022
 3734SOL    HW111337   4.565   3.185   4.083
 3734SOL    HW211338   4.537   3.165   3.936
 3735SOL     OW11339   3.795   3.000   3.979
 3735SOL    HW111340   3.863   2.974   4.042
 3735SOL    HW211341   3.759   2.917   3.948
 3736SOL     OW11342   4.505   3.665   4.020
 3736SOL    HW111343   4.503   3.657   4.115
 3736SOL    HW211344   4.598   3.667   3.998
 3737SOL     OW11345   4.018   4.383   0.104
 3737SOL    HW111346   3.932   4.350   0.131
 3737SOL    HW211347   4.078   4.348   0.170
 3738SOL     OW11348   4.045   3.871   0.974
 3738SOL    HW111349   3.988   3.902   0.904
 3738SOL    HW211350   4.062   3.779   0.953
 3739SOL     OW11351   3.719   4.137   0.695
 3739SOL    HW111352   3.752   4.227   0.690
 3739SOL    HW211353   3.628   4.147   0.726
 3740SOL     OW11354   4.776   4.363   0.710
 3740SOL    HW111355   4.850   4.404   0.754
 3740SOL    HW211356   4.779   4.397   0.620
 3741SOL     OW11357   4.528   4.880   1.075
 3741SOL    HW111358   4.581   4.952   1.109
 3741SOL    HW211359   4.576   4.848   0.999
 3742SOL     OW11360   4.567   4.522   1.833
 3742SOL    HW111361   4.527   4.436   1.821
 3742SOL    HW211362   4.502   4.584   1.800
 3743SOL     OW11363   4.435   4.676   0.655
 3743SOL    HW111364   4.356   4.622   0.655
 3743SOL    HW211365   4.466   4.673   0.565
 3744SOL     OW11366   4.433   4.770   1.751
 3744SOL    HW111367   4.388   4.854   1.762
 3744SOL    HW211368   4.449   4.764   1.657
 3745SOL     OW11369   4.204   4.134   1.476
 3745SOL    HW111370   4.232   4.223   1.499
 3745SOL    HW211371   4.134   4.114   1.539
 3746SOL     OW11372   4.039   4.855   0.924
 3746SOL    HW111373   4.075   4.769   0.947
 3746SOL    HW211374   4.115   4.907   0.898
 3747SOL     OW11375   4.323   4.777   0.134
 3747SOL    HW111376   4.412   4.762   0.101
 3747SOL    HW211377   4.272   4.704   0.098
 3748SOL     OW11378   3.831   4.398   0.665
 3748SOL    HW111379   3.831   4.476   0.721
 3748SOL    HW211380   3.801   4.431   0.580
 3749SOL     OW11381   3.769   4.428   1.613
 3749SOL    HW111382   3.710   4.389   1.677
 3749SOL    HW211383   3.763   4.370   1.537
 3750SOL     OW11384   4.484   3.740   0.499
 3750SOL    HW111385   4.556   3.803   0.494
 3750SOL    HW211386   4.498   3.682   0.424
 3751SOL     OW11387   3.892   4.682   1.300
 3751SOL    HW111388   3.894   4.777   1.315
 3751SOL    HW211389   3.802   4.656   1.321
 3752SOL     OW11390   4.034   3.986   1.874
 3752SOL    HW111391   4.110   3.935   1.846
 3752SOL    HW211392   4.027   4.056   1.810
 3753SOL     OW11393   4.384   4.461   0.255
 3753SOL    HW111394   4.453   4.402   0.284
 3753SOL    HW211395   4.302   4.414   0.272
 3754SOL     OW11396   4.503   4.367   1.507
 3754SOL    HW111397   4.494   4.318   1.589
 3754SOL    HW211398   4.521   4.300   1.441
 3755SOL     OW11399   4.724   4.502   1.593
 3755SOL    HW111400   4.700   4.517   1.685
 3755SOL    HW211401   4.647   4.458   1.556
 3756SOL     OW11402   4.815   4.102   1.241
 3756SOL    HW111403   4.744   4.154   1.279
 3756SOL    HW211404   4.777   4.064   1.162
 3757SOL     OW11405   4.777   4.417   0.442
 3757SOL    HW111406   4.847   4.364   0.406
 3757SOL    HW211407   4.697   4.380   0.405
 3758SOL     OW11408   3.853   4.645   0.822
 3758SOL    HW111409   3.919   4.613   0.884
 3758SOL    HW211410   3.884   4.732   0.797
 3759SOL     OW11411   4.674   4.106   0.152
 3759SOL    HW111412   4.743   4.052   0.189
 3759SOL    HW211413   4.600   4.046   0.142
 3760SOL     OW11414   4.265   3.995   0.859
 3760SOL    HW111415   4.187   3.968   0.907
 3760SOL    HW211416   4.283   3.924   0.798
 3761SOL     OW11417   3.968   4.651   0.389
 3761SOL    HW111418   3.887   4.602   0.404
 3761SOL    HW211419   3.993   4.630   0.299
 3762SOL     OW11420   3.831   4.006   1.479
 3762SOL    HW111421   3.799   4.092   1.454
 3762SOL    HW211422   3.880   3.975   1.403
 3763SOL     OW11423   4.093   4.340   0.574
 3763SOL    HW111424   4.134   4.419   0.609
 3763SOL    HW211425   4.003   4.344   0.605
 3764SOL     OW11426   4.435   3.971   0.128
 3764SOL    HW111427   4.370   3.978   0.198
 3764SOL    HW211428   4.416   4.045   0.071
 3765SOL     OW11429   4.488   3.966   1.695
 3765SOL    HW111430   4.552   3.902   1.726
 3765SOL    HW211431   4.482   3.950   1.601
 3766SOL     OW11432   4.640   4.272   0.927
 3766SOL    HW111433   4.660   4.337   0.995
 3766SOL    HW211434   4.687   4.302   0.850
 3767SOL     OW11435   4.274   3.808   0.662
 3767SOL    HW111436   4.208   3.843   0.602
 3767SOL    HW211437   4.349   3.789   0.606
 3768SOL     OW11438   4.056   3.805   0.228
 3768SOL    HW111439   4.043   3.819   0.134
 3768SOL    HW211440   3.976   3.763   0.258
 3769SOL     OW11441   4.702   3.915   0.475
 3769SOL    HW111442   4.759   3.928   0.399
 3769SOL    HW211443   4.681   4.003   0.505
 3770SOL     OW11444   4.965   4.400   1.507
 3770SOL    HW111445   5.030   4.443   1.563
 3770SOL    HW211446   4.881   4.436   1.536
 3771SOL     OW11447   4.313   4.917   0.728
 3771SOL    HW111448   4.363   4.835   0.724
 3771SOL    HW211449   4.242   4.905   0.664
 3772SOL     OW11450   4.728   4.289   4.954
 3772SOL    HW111451   4.707   4.231   5.026
 3772SOL    HW211452   4.702   4.241   4.875
 3773SOL     OW11453   3.728   4.253   1.398
 3773SOL    HW111454   3.638   4.246   1.369
 3773SOL    HW211455   3.777   4.283   1.321
 3774SOL     OW11456   4.435   3.934   1.072
 3774SOL    HW111457   4.371   3.968   1.010
 3774SOL    HW211458   4.422   3.839   1.071
 3775SOL     OW11459   4.629   4.158   0.580
 3775SOL    HW111460   4.691   4.217   0.622
 3775SOL    HW211461   4.553   4.157   0.639
 3776SOL     OW11462   4.798   3.758   0.677
 3776SOL    HW111463   4.867   3.816   0.708
 3776SOL    HW211464   4.760   3.804   0.602
 3777SOL     OW11465   4.234   4.014   0.318
 3777SOL    HW111466   4.232   4.024   0.413
 3777SOL    HW211467   4.173   3.943   0.300
 3778SOL     OW11468   4.621   3.775   1.340
 3778SOL    HW111469   4.620   3.702   1.402
 3778SOL    HW211470   4.541   3.824   1.360
 3779SOL     OW11471   4.711   4.832   1.787
 3779SOL    HW111472   4.620   4.804   1.782
 3779SOL    HW211473   4.749   4.806   1.703
 3780SOL     OW11474   4.498   4.683   0.384
 3780SOL    HW111475   4.479   4.770   0.349
 3780SOL    HW211476   4.447   4.623   0.330
 3781SOL     OW11477   4.151   4.626   1.228
 3781SOL    HW111478   4.199   4.600   1.307
 3781SOL    HW211479   4.061   4.642   1.259
 3782SOL     OW11480   4.106   4.814   0.554
 3782SOL    HW111481   4.158   4.869   0.496
 3782SOL    HW211482   4.055   4.759   0.495
 3783SOL     OW11483   4.364   4.245   0.919
 3783SOL    HW111484   4.459   4.248   0.912
 3783SOL    HW211485   4.340   4.156   0.891
 3784SOL     OW11486   4.167   4.401   1.605
 3784SOL    HW111487   4.132   4.458   1.674
 3784SOL    HW211488   4.213   4.460   1.545
 3785SOL     OW11489   4.649   3.762   1.808
 3785SOL    HW111490   4.621   3.768   1.899
 3785SOL    HW211491   4.664   3.669   1.793
 3786SOL     OW11492   4.254   3.853   1.778
 3786SOL    HW111493   4.332   3.902   1.753
 3786SOL    HW211494   4.237   3.794   1.705
 3787SOL     OW11495   4.391   4.645   1.090
 3787SOL    HW111496   4.429   4.731   1.106
 3787SOL    HW211497   4.307   4.647   1.137
 3788SOL     OW11498  -0.017   4.633   1.072
 3788SOL    HW111499   0.007   4.625   1.164
 3788SOL    HW211500   0.052   4.687   1.034
 3789SOL     OW11501   4.947   4.254   0.315
 3789SOL    HW111502   5.018   4.209   0.361
 3789SOL    HW211503   4.981   4.271   0.228
 3790SOL     OW11504   3.941   3.920   1.229
 3790SOL    HW111505   3.850   3.895   1.213
 3790SOL    HW211506   3.986   3.896   1.148
 3791SOL     OW11507   4.428   4.375   1.155
 3791SOL    HW111508   4.424   4.470   1.143
 3791SOL    HW211509   4.392   4.339   1.073
 3792SOL     OW11510   4.026   3.853   0.530
 3792SOL    HW111511   3.996   3.881   0.443
 3792SOL    HW211512   4.013   3.758   0.530
 3793SOL     OW11513   4.730   4.514   1.067
 3793SOL    HW111514   4.818   4.551   1.072
 3793SOL    HW211515   4.685   4.566   1.001
 3794SOL     OW11516   4.058   4.565   1.799
 3794SOL    HW111517   4.105   4.617   1.864
 3794SOL    HW211518   3.993   4.624   1.763
 3795SOL     OW11519   4.083   4.579   0.967
 3795SOL    HW111520   4.106   4.602   1.057
 3795SOL    HW211521   4.090   4.483   0.965
 3796SOL     OW11522   4.110   4.313   1.000
 3796SOL    HW111523   4.103   4.260   1.079
 3796SOL    HW211524   4.195   4.291   0.963
 3797SOL     OW11525   4.853   3.939   1.739
 3797SOL    HW111526   4.792   3.869   1.762
 3797SOL    HW211527   4.856   3.937   1.643
 3798SOL     OW11528   4.824   3.932   1.465
 3798SOL    HW111529   4.844   3.998   1.399
 3798SOL    HW211530   4.761   3.873   1.423
 3799SOL     OW11531   3.600   5.020   0.077
 3799SOL    HW111532   3.640   4.937   0.102
 3799SOL    HW211533   3.515   4.996   0.040
 3800SOL     OW11534   4.658   4.622   1.330
 3800SOL    HW111535   4.669   4.577   1.246
 3800SOL    HW211536   4.711   4.573   1.392
 3801SOL     OW11537   3.837   4.294   1.147
 3801SOL    HW111538   3.915   4.247   1.174
 3801SOL    HW211539   3.867   4.354   1.079
 3802SOL     OW11540   4.017   4.185   1.686
 3802SOL    HW111541   3.930   4.217   1.710
 3802SOL    HW211542   4.066   4.264   1.662
 3803SOL     OW11543   4.567   4.278   0.336
 3803SOL    HW111544   4.575   4.224   0.415
 3803SOL    HW211545   4.604   4.223   0.266
 3804SOL     OW11546   4.547   4.184   1.302
 3804SOL    HW111547   4.509   4.254   1.248
 3804SOL    HW211548   4.501   4.105   1.274
 3805SOL     OW11549   4.171   4.290   0.309
 3805SOL    HW111550   4.198   4.198   0.306
 3805SOL    HW211551   4.144   4.304   0.399
 3806SOL     OW11552   3.889   4.960   1.331
 3806SOL    HW111553   3.948   4.984   1.402
 3806SOL    HW211554   3.803   4.990   1.361
 3807SOL     OW11555   3.818   4.941   1.065
 3807SOL    HW111556   3.852   4.943   1.154
 3807SOL    HW211557   3.891   4.912   1.011
 3808SOL     OW11558   4.576   3.729   0.090
 3808SOL    HW111559   4.550   3.676   0.165
 3808SOL    HW211560   4.524   3.809   0.098
 3809SOL     OW11561   3.898   3.941   0.757
 3809SOL    HW111562   3.843   4.016   0.735
 3809SOL    HW211563   3.944   3.920   0.676
 3810SOL     OW11564   4.502   4.786   1.484
 3810SOL    HW111565   4.514   4.876   1.455
 3810SOL    HW211566   4.559   4.735   1.426
 3811SOL     OW11567   4.761   4.641   0.291
 3811SOL    HW111568   4.784   4.567   0.348
 3811SOL    HW211569   4.676   4.670   0.323
 3812SOL     OW11570   4.045   0.068   1.522
 3812SOL    HW111571   4.049   0.057   1.617
 3812SOL    HW211572   4.136   0.079   1.495
 3813SOL     OW11573   4.716   4.888   0.787
 3813SOL    HW111574   4.812   4.888   0.790
 3813SOL    HW211575   4.692   4.798   0.811
 3814SOL     OW11576   4.687   4.012   1.018
 3814SOL    HW111577   4.597   3.986   1.038
 3814SOL    HW211578   4.679   4.098   0.977
 3815SOL     OW11579   3.823   4.679   1.701
 3815SOL    HW111580   3.771   4.665   1.780
 3815SOL    HW211581   3.815   4.597   1.652
 3816SOL     OW11582   4.384   3.909   1.443
 3816SOL    HW111583   4.330   3.988   1.439
 3816SOL    HW211584   4.323   3.839   1.463
 3817SOL     OW11585   3.745   3.953   0.288
 3817SOL    HW111586   3.779   3.865   0.302
 3817SOL    HW211587   3.687   3.968   0.363
 3818SOL     OW11588   4.322   4.569   1.444
 3818SOL    HW111589   4.388   4.500   1.449
 3818SOL    HW211590   4.371   4.650   1.452
 3819SOL     OW11591   4.508   4.244   1.752
 3819SOL    HW111592   4.597   4.230   1.786
 3819SOL    HW211593   4.472   4.156   1.741
 3820SOL     OW11594   4.176   4.578   0.692
 3820SOL    HW111595   4.149   4.583   0.783
 3820SOL    HW211596   4.140   4.657   0.652
 3821SOL     OW11597   4.580   4.661   0.886
 3821SOL    HW111598   4.510   4.645   0.950
 3821SOL    HW211599   4.537   4.655   0.801
 3822SOL     OW11600   4.937   4.770   4.989
 3822SOL    HW111601   4.895   4.846   4.948
 3822SOL    HW211602   4.873   4.700   4.980
 3823SOL     OW11603   3.678  -0.023   0.736
 3823SOL    HW111604   3.766  -0.017   0.697
 3823SOL    HW211605   3.675   0.051   0.796
 3824SOL     OW11606   4.226   4.100   0.583
 3824SOL    HW111607   4.232   4.076   0.676
 3824SOL    HW211608   4.180   4.184   0.584
 3825SOL     OW11609   4.067   4.163   1.229
 3825SOL    HW111610   4.123   4.165   1.306
 3825SOL    HW211611   4.029   4.075   1.229
 3826SOL     OW11612   4.751   3.752   1.095
 3826SOL    HW111613   4.713   3.758   1.183
 3826SOL    HW211614   4.747   3.842   1.061
 3827SOL     OW11615   4.521   4.960   0.333
 3827SOL    HW111616   4.554   4.998   0.415
 3827SOL    HW211617   4.568   5.008   0.265
 3828SOL     OW11618   3.898   4.356   1.914
 3828SOL    HW111619   3.936   4.427   1.861
 3828SOL    HW211620   3.973   4.320   1.962
 3829SOL     OW11621   3.923   4.031   2.763
 3829SOL    HW111622   3.953   3.989   2.844
 3829SOL    HW211623   3.871   4.106   2.793
 3830SOL     OW11624   3.720   4.083   2.562
 3830SOL    HW111625   3.783   4.038   2.618
 3830SOL    HW211626   3.667   4.013   2.525
 3831SOL     OW11627   4.849   4.387   2.470
 3831SOL    HW111628   4.898   4.450   2.521
 3831SOL    HW211629   4.909   4.312   2.460
 3832SOL     OW11630   4.436   4.929   2.792
 3832SOL    HW111631   4.350   4.892   2.771
 3832SOL    HW211632   4.426   5.022   2.776
 3833SOL     OW11633   4.644   4.366   3.757
 3833SOL    HW111634   4.558   4.373   3.798
 3833SOL    HW211635   4.629   4.386   3.665
 3834SOL     OW11636   4.375   4.672   2.490
 3834SOL    HW111637   4.389   4.684   2.396
 3834SOL    HW211638   4.369   4.577   2.501
 3835SOL     OW11639   4.409   4.782   3.727
 3835SOL    HW111640   4.421   4.866   3.772
 3835SOL    HW211641   4.336   4.797   3.668
 3836SOL     OW11642   4.168   4.109   3.346
 3836SOL    HW111643   4.221   4.158   3.409
 3836SOL    HW211644   4.143   4.173   3.279
 3837SOL     OW11645   3.971   4.817   2.875
 3837SOL    HW111646   4.052   4.798   2.827
 3837SOL    HW211647   3.902   4.781   2.819
 3838SOL     OW11648   4.296   4.664   2.004
 3838SOL    HW111649   4.350   4.697   2.076
 3838SOL    HW211650   4.336   4.702   1.925
 3839SOL     OW11651   3.827   4.313   2.457
 3839SOL    HW111652   3.781   4.240   2.499
 3839SOL    HW211653   3.908   4.274   2.423
 3840SOL     OW11654   3.841   4.577   3.458
 3840SOL    HW111655   3.751   4.603   3.439
 3840SOL    HW211656   3.891   4.658   3.449
 3841SOL     OW11657   4.576   3.685   2.318
 3841SOL    HW111658   4.632   3.743   2.370
 3841SOL    HW211659   4.490   3.728   2.319
 3842SOL     OW11660   3.909   4.680   3.112
 3842SOL    HW111661   3.992   4.632   3.121
 3842SOL    HW211662   3.921   4.732   3.032
 3843SOL     OW11663   4.084   4.051   3.691
 3843SOL    HW111664   4.127   3.966   3.678
 3843SOL    HW211665   4.039   4.068   3.609
 3844SOL     OW11666   4.372   4.405   2.086
 3844SOL    HW111667   4.323   4.406   2.168
 3844SOL    HW211668   4.355   4.490   2.046
 3845SOL     OW11669   4.489   4.325   3.313
 3845SOL    HW111670   4.584   4.337   3.307
 3845SOL    HW211671   4.468   4.265   3.243
 3846SOL     OW11672   4.707   4.563   3.366
 3846SOL    HW111673   4.693   4.612   3.448
 3846SOL    HW211674   4.660   4.614   3.300
 3847SOL     OW11675   4.711   4.079   3.173
 3847SOL    HW111676   4.791   4.030   3.191
 3847SOL    HW211677   4.736   4.171   3.187
 3848SOL     OW11678   4.775   4.373   2.202
 3848SOL    HW111679   4.800   4.392   2.292
 3848SOL    HW211680   4.749   4.457   2.165
 3849SOL     OW11681   3.878   4.567   2.561
 3849SOL    HW111682   3.940   4.552   2.631
 3849SOL    HW211683   3.856   4.480   2.528
 3850SOL     OW11684   4.572   4.002   1.999
 3850SOL    HW111685   4.562   4.074   2.062
 3850SOL    HW211686   4.632   4.037   1.933
 3851SOL     OW11687   4.232   3.821   2.808
 3851SOL    HW111688   4.155   3.768   2.786
 3851SOL    HW211689   4.239   3.883   2.735
 3852SOL     OW11690   4.095   4.614   2.201
 3852SOL    HW111691   4.156   4.638   2.132
 3852SOL    HW211692   4.131   4.535   2.240
 3853SOL     OW11693   3.919   4.117   3.473
 3853SOL    HW111694   3.991   4.102   3.412
 3853SOL    HW211695   3.928   4.208   3.499
 3854SOL     OW11696   4.204   4.384   2.305
 3854SOL    HW111697   4.145   4.315   2.334
 3854SOL    HW211698   4.266   4.395   2.378
 3855SOL     OW11699   4.329   3.883   2.049
 3855SOL    HW111700   4.415   3.921   2.034
 3855SOL    HW211701   4.298   3.858   1.962
 3856SOL     OW11702   4.455   4.013   3.599
 3856SOL    HW111703   4.431   3.969   3.680
 3856SOL    HW211704   4.402   4.093   3.598
 3857SOL     OW11705   4.586   4.120   2.762
 3857SOL    HW111706   4.545   4.184   2.821
 3857SOL    HW211707   4.596   4.166   2.679
 3858SOL     OW11708   4.308   3.757   2.292
 3858SOL    HW111709   4.314   3.808   2.211
 3858SOL    HW211710   4.280   3.670   2.264
 3859SOL     OW11711   0.113   4.894   1.902
 3859SOL    HW111712   0.200   4.904   1.941
 3859SOL    HW211713   0.070   4.978   1.920
 3860SOL     OW11714   3.923   3.771   2.013
 3860SOL    HW111715   3.876   3.809   2.087
 3860SOL    HW211716   3.968   3.845   1.973
 3861SOL     OW11717   4.688   4.060   2.346
 3861SOL    HW111718   4.770   4.069   2.297
 3861SOL    HW211719   4.621   4.093   2.287
 3862SOL     OW11720   4.769   4.349   3.214
 3862SOL    HW111721   4.767   4.420   3.278
 3862SOL    HW211722   4.738   4.389   3.133
 3863SOL     OW11723   4.204   4.822   2.680
 3863SOL    HW111724   4.143   4.879   2.634
 3863SOL    HW211725   4.242   4.767   2.612
 3864SOL     OW11726   4.756   4.174   1.835
 3864SOL    HW111727   4.828   4.236   1.836
 3864SOL    HW211728   4.792   4.095   1.794
 3865SOL     OW11729   3.809   4.402   3.247
 3865SOL    HW111730   3.821   4.453   3.328
 3865SOL    HW211731   3.794   4.468   3.179
 3866SOL     OW11732   4.288   3.938   3.051
 3866SOL    HW111733   4.306   3.864   3.109
 3866SOL    HW211734   4.277   3.899   2.964
 3867SOL     OW11735   4.611   4.260   2.525
 3867SOL    HW111736   4.687   4.317   2.515
 3867SOL    HW211737   4.629   4.185   2.468
 3868SOL     OW11738   4.738   3.829   2.490
 3868SOL    HW111739   4.728   3.844   2.584
 3868SOL    HW211740   4.724   3.915   2.451
 3869SOL     OW11741   4.117   4.019   2.170
 3869SOL    HW111742   4.085   4.066   2.093
 3869SOL    HW211743   4.190   3.966   2.137
 3870SOL     OW11744   4.636   4.711   3.589
 3870SOL    HW111745   4.696   4.684   3.659
 3870SOL    HW211746   4.553   4.726   3.633
 3871SOL     OW11747   4.463   4.722   2.213
 3871SOL    HW111748   4.543   4.680   2.181
 3871SOL    HW211749   4.484   4.816   2.214
 3872SOL     OW11750   4.152   4.553   3.122
 3872SOL    HW111751   4.218   4.568   3.189
 3872SOL    HW211752   4.199   4.564   3.039
 3873SOL     OW11753   4.002   4.766   2.417
 3873SOL    HW111754   3.955   4.696   2.462
 3873SOL    HW211755   4.037   4.725   2.339
 3874SOL     OW11756   4.247   4.255   2.739
 3874SOL    HW111757   4.169   4.268   2.792
 3874SOL    HW211758   4.320   4.276   2.798
 3875SOL     OW11759   4.193   4.491   3.541
 3875SOL    HW111760   4.174   4.577   3.579
 3875SOL    HW211761   4.112   4.442   3.551
 3876SOL     OW11762   4.687   3.912   3.503
 3876SOL    HW111763   4.752   3.982   3.511
 3876SOL    HW211764   4.610   3.946   3.548
 3877SOL     OW11765   4.203   3.818   3.638
 3877SOL    HW111766   4.279   3.800   3.694
 3877SOL    HW211767   4.214   3.759   3.563
 3878SOL     OW11768   4.298   4.568   2.889
 3878SOL    HW111769   4.354   4.642   2.865
 3878SOL    HW211770   4.355   4.492   2.888
 3879SOL     OW11771   0.089   4.670   2.975
 3879SOL    HW111772   0.134   4.677   3.059
 3879SOL    HW211773   0.089   4.760   2.940
 3880SOL     OW11774   4.903   4.121   2.179
 3880SOL    HW111775   4.868   4.209   2.163
 3880SOL    HW211776   4.943   4.096   2.096
 3881SOL     OW11777   4.010   3.945   3.011
 3881SOL    HW111778   4.098   3.967   3.039
 3881SOL    HW211779   4.008   3.849   3.012
 3882SOL     OW11780   4.455   4.336   2.910
 3882SOL    HW111781   4.530   4.390   2.936
 3882SOL    HW211782   4.444   4.274   2.982
 3883SOL     OW11783   4.096   3.788   2.469
 3883SOL    HW111784   4.169   3.778   2.407
 3883SOL    HW211785   4.109   3.876   2.505
 3884SOL     OW11786   4.862   4.566   2.845
 3884SOL    HW111787   4.929   4.617   2.890
 3884SOL    HW211788   4.898   4.551   2.758
 3885SOL     OW11789   4.110   4.732   3.635
 3885SOL    HW111790   4.023   4.745   3.672
 3885SOL    HW211791   4.141   4.821   3.616
 3886SOL     OW11792   0.291   3.976   1.958
 3886SOL    HW111793   0.198   3.996   1.964
 3886SOL    HW211794   0.301   3.893   2.006
 3887SOL     OW11795   4.051   4.526   2.764
 3887SOL    HW111796   4.136   4.556   2.795
 3887SOL    HW211797   4.033   4.447   2.815
 3888SOL     OW11798   4.026   4.293   2.908
 3888SOL    HW111799   4.048   4.281   3.000
 3888SOL    HW211800   3.934   4.267   2.902
 3889SOL     OW11801   4.890   4.097   3.496
 3889SOL    HW111802   4.918   4.089   3.587
 3889SOL    HW211803   4.932   4.177   3.465
 3890SOL     OW11804   4.910   3.924   3.279
 3890SOL    HW111805   4.910   3.974   3.361
 3890SOL    HW211806   4.996   3.881   3.278
 3891SOL     OW11807   3.742   4.893   2.148
 3891SOL    HW111808   3.784   4.807   2.145
 3891SOL    HW211809   3.811   4.954   2.122
 3892SOL     OW11810   4.652   4.497   3.008
 3892SOL    HW111811   4.623   4.574   3.056
 3892SOL    HW211812   4.719   4.530   2.947
 3893SOL     OW11813   3.761   4.211   2.898
 3893SOL    HW111814   3.695   4.273   2.930
 3893SOL    HW211815   3.719   4.125   2.907
 3894SOL     OW11816   3.949   4.367   3.583
 3894SOL    HW111817   3.929   4.375   3.677
 3894SOL    HW211818   3.905   4.441   3.543
 3895SOL     OW11819   4.555   4.218   2.161
 3895SOL    HW111820   4.633   4.273   2.172
 3895SOL    HW211821   4.488   4.277   2.129
 3896SOL     OW11822   4.453   4.152   3.105
 3896SOL    HW111823   4.537   4.109   3.123
 3896SOL    HW211824   4.391   4.080   3.094
 3897SOL     OW11825   4.123   4.276   2.038
 3897SOL    HW111826   4.136   4.292   2.131
 3897SOL    HW211827   4.210   4.288   2.000
 3898SOL     OW11828   3.886   4.836   3.336
 3898SOL    HW111829   3.794   4.859   3.346
 3898SOL    HW211830   3.888   4.782   3.257
 3899SOL     OW11831   3.861   0.073   2.868
 3899SOL    HW111832   3.821   0.048   2.784
 3899SOL    HW211833   3.912  -0.004   2.893
 3900SOL     OW11834   4.143   4.030   2.609
 3900SOL    HW111835   4.194   4.103   2.645
 3900SOL    HW211836   4.063   4.030   2.662
 3901SOL     OW11837   4.547   4.691   3.180
 3901SOL    HW111838   4.467   4.661   3.223
 3901SOL    HW211839   4.548   4.785   3.194
 3902SOL     OW11840   4.679   4.604   2.078
 3902SOL    HW111841   4.756   4.656   2.054
 3902SOL    HW211842   4.645   4.571   1.995
 3903SOL     OW11843   3.983   0.089   3.360
 3903SOL    HW111844   3.963  -0.003   3.343
 3903SOL    HW211845   4.053   0.110   3.298
 3904SOL     OW11846   4.806   4.929   2.469
 3904SOL    HW111847   4.745   4.877   2.522
 3904SOL    HW211848   4.772   4.922   2.380
 3905SOL     OW11849   4.690   3.866   2.764
 3905SOL    HW111850   4.653   3.954   2.768
 3905SOL    HW211851   4.731   3.853   2.849
 3906SOL     OW11852   3.854   4.803   3.715
 3906SOL    HW111853   3.843   4.887   3.670
 3906SOL    HW211854   3.771   4.757   3.702
 3907SOL     OW11855   4.404   3.943   3.333
 3907SOL    HW111856   4.424   3.957   3.425
 3907SOL    HW211857   4.317   3.980   3.321
 3908SOL     OW11858   3.822   4.093   2.027
 3908SOL    HW111859   3.816   4.184   1.997
 3908SOL    HW211860   3.885   4.052   1.967
 3909SOL     OW11861   3.748   3.890   2.197
 3909SOL    HW111862   3.724   3.928   2.281
 3909SOL    HW211863   3.765   3.965   2.140
 3910SOL     OW11864   4.343   4.557   3.316
 3910SOL    HW111865   4.292   4.550   3.396
 3910SOL    HW211866   4.399   4.479   3.315
 3911SOL     OW11867   4.330   4.252   3.521
 3911SOL    HW111868   4.288   4.335   3.546
 3911SOL    HW211869   4.395   4.277   3.456
 3912SOL     OW11870   4.367   4.394   2.524
 3912SOL    HW111871   4.452   4.350   2.522
 3912SOL    HW211872   4.319   4.351   2.595
 3913SOL     OW11873   4.588   4.814   2.594
 3913SOL    HW111874   4.556   4.841   2.680
 3913SOL    HW211875   4.522   4.753   2.561
 3914SOL     OW11876   4.888   4.759   1.986
 3914SOL    HW111877   4.972   4.792   1.955
 3914SOL    HW211878   4.825   4.787   1.919
 3915SOL     OW11879   3.742   0.031   2.615
 3915SOL    HW111880   3.683   0.094   2.656
 3915SOL    HW211881   3.712   0.026   2.524
 3916SOL     OW11882   4.055   4.171   2.384
 3916SOL    HW111883   4.086   4.121   2.459
 3916SOL    HW211884   4.067   4.112   2.309
 3917SOL     OW11885   4.059   4.305   3.185
 3917SOL    HW111886   4.097   4.391   3.169
 3917SOL    HW211887   3.969   4.322   3.212
 3918SOL     OW11888   4.776   3.735   3.026
 3918SOL    HW111889   4.870   3.723   3.040
 3918SOL    HW211890   4.743   3.647   3.008
 3919SOL     OW11891   4.514  -0.007   2.214
 3919SOL    HW111892   4.491   0.016   2.304
 3919SOL    HW211893   4.560   0.070   2.181
 3920SOL     OW11894   3.831   4.633   2.136
 3920SOL    HW111895   3.923   4.621   2.160
 3920SOL    HW211896   3.783   4.573   2.194
 3921SOL     OW11897   3.890   4.387   3.852
 3921SOL    HW111898   3.804   4.398   3.892
 3921SOL    HW211899   3.946   4.450   3.897
 3922SOL     OW11900   4.012   3.908   4.712
 3922SOL    HW111901   3.999   4.001   4.698
 3922SOL    HW211902   3.928   3.868   4.690
 3923SOL     OW11903   3.778   4.162   4.227
 3923SOL    HW111904   3.687   4.189   4.220
 3923SOL    HW211905   3.788   4.093   4.161
 3924SOL     OW11906   4.799   4.471   4.500
 3924SOL    HW111907   4.754   4.390   4.478
 3924SOL    HW211908   4.761   4.496   4.585
 3925SOL     OW11909   4.452   4.862   4.819
 3925SOL    HW111910   4.502   4.846   4.898
 3925SOL    HW211911   4.416   4.950   4.830
 3926SOL     OW11912   4.420   4.648   4.383
 3926SOL    HW111913   4.470   4.681   4.458
 3926SOL    HW211914   4.337   4.695   4.386
 3927SOL     OW11915   4.014   4.849   4.583
 3927SOL    HW111916   3.979   4.882   4.666
 3927SOL    HW211917   3.993   4.918   4.519
 3928SOL     OW11918   4.319   4.630   3.939
 3928SOL    HW111919   4.349   4.542   3.916
 3928SOL    HW211920   4.343   4.685   3.864
 3929SOL     OW11921   3.855   4.421   4.270
 3929SOL    HW111922   3.949   4.424   4.256
 3929SOL    HW211923   3.832   4.329   4.256
 3930SOL     OW11924   4.517   3.652   4.302
 3930SOL    HW111925   4.589   3.702   4.340
 3930SOL    HW211926   4.438   3.698   4.332
 3931SOL     OW11927   3.945   4.762   4.975
 3931SOL    HW111928   3.979   4.825   5.038
 3931SOL    HW211929   3.922   4.814   4.898
 3932SOL     OW11930   4.408   4.376   3.894
 3932SOL    HW111931   4.443   4.366   3.982
 3932SOL    HW211932   4.340   4.309   3.887
 3933SOL     OW11933   4.775   4.460   4.202
 3933SOL    HW111934   4.803   4.467   4.293
 3933SOL    HW211935   4.842   4.406   4.160
 3934SOL     OW11936   3.756   4.515   4.510
 3934SOL    HW111937   3.703   4.443   4.543
 3934SOL    HW211938   3.789   4.483   4.426
 3935SOL     OW11939   4.595   4.086   4.094
 3935SOL    HW111940   4.655   4.095   4.020
 3935SOL    HW211941   4.648   4.052   4.165
 3936SOL     OW11942   4.224   3.990   4.502
 3936SOL    HW111943   4.293   3.924   4.502
 3936SOL    HW211944   4.161   3.958   4.567
 3937SOL     OW11945   4.056   4.545   3.996
 3937SOL    HW111946   4.079   4.498   4.076
 3937SOL    HW211947   4.137   4.592   3.972
 3938SOL     OW11948   4.121   4.384   4.214
 3938SOL    HW111949   4.199   4.408   4.265
 3938SOL    HW211950   4.120   4.288   4.216
 3939SOL     OW11951   4.408   3.863   3.830
 3939SOL    HW111952   4.456   3.786   3.861
 3939SOL    HW211953   4.374   3.904   3.910
 3940SOL     OW11954   4.632   4.167   4.712
 3940SOL    HW111955   4.553   4.215   4.736
 3940SOL    HW211956   4.651   4.194   4.623
 3941SOL     OW11957   4.251   3.801   4.222
 3941SOL    HW111958   4.292   3.868   4.167
 3941SOL    HW211959   4.215   3.738   4.159
 3942SOL     OW11960   0.072   4.865   3.838
 3942SOL    HW111961   0.151   4.917   3.853
 3942SOL    HW211962   0.030   4.861   3.924
 3943SOL     OW11963   3.901   3.740   3.933
 3943SOL    HW111964   3.981   3.710   3.975
 3943SOL    HW211965   3.914   3.719   3.840
 3944SOL     OW11966   4.748   4.032   4.315
 3944SOL    HW111967   4.841   4.056   4.312
 3944SOL    HW211968   4.748   3.943   4.350
 3945SOL     OW11969   4.195   4.795   4.382
 3945SOL    HW111970   4.142   4.803   4.461
 3945SOL    HW211971   4.219   4.884   4.359
 3946SOL     OW11972   4.768   4.167   3.899
 3946SOL    HW111973   4.727   4.233   3.844
 3946SOL    HW211974   4.828   4.120   3.841
 3947SOL     OW11975   4.645   4.249   4.447
 3947SOL    HW111976   4.558   4.269   4.411
 3947SOL    HW211977   4.675   4.174   4.396
 3948SOL     OW11978   4.755   3.777   4.428
 3948SOL    HW111979   4.837   3.757   4.383
 3948SOL    HW211980   4.741   3.703   4.487
 3949SOL     OW11981   4.335   4.009   4.060
 3949SOL    HW111982   4.426   4.036   4.073
 3949SOL    HW211983   4.298   4.074   4.001
 3950SOL     OW11984   4.483   4.746   4.133
 3950SOL    HW111985   4.462   4.705   4.217
 3950SOL    HW211986   4.419   4.710   4.072
 3951SOL     OW11987   4.157   4.595   0.001
 3951SOL    HW111988   4.117   4.517   0.040
 3951SOL    HW211989   4.083   4.651  -0.021
 3952SOL     OW11990   3.956   4.831   4.210
 3952SOL    HW111991   3.952   4.908   4.267
 3952SOL    HW211992   4.033   4.783   4.240
 3953SOL     OW11993   4.258   4.253   4.558
 3953SOL    HW111994   4.289   4.300   4.481
 3953SOL    HW211995   4.256   4.161   4.531
 3954SOL     OW11996   4.366   4.595   4.826
 3954SOL    HW111997   4.386   4.687   4.814
 3954SOL    HW211998   4.290   4.594   4.884
 3955SOL     OW11999   0.069   4.425   4.825
 3955SOL    HW112000   0.147   4.425   4.770
 3955SOL    HW212001  -0.004   4.426   4.763
 3956SOL     OW12002   4.936   4.272   4.085
 3956SOL    HW112003   4.955   4.205   4.151
 3956SOL    HW212004   4.876   4.230   4.023
 3957SOL     OW12005   3.956   3.807   4.969
 3957SOL    HW112006   3.866   3.838   4.979
 3957SOL    HW212007   3.987   3.847   4.888
 3958SOL     OW12008   4.425   4.343   4.756
 3958SOL    HW112009   4.398   4.432   4.779
 3958SOL    HW212010   4.360   4.314   4.691
 3959SOL     OW12011   4.039   3.770   4.394
 3959SOL    HW112012   3.995   3.855   4.404
 3959SOL    HW212013   4.117   3.789   4.342
 3960SOL     OW12014   4.669   4.518   4.740
 3960SOL    HW112015   4.701   4.535   4.828
 3960SOL    HW212016   4.593   4.461   4.752
 3961SOL     OW12017   0.203   3.977   4.014
 3961SOL    HW112018   0.287   3.960   4.057
 3961SOL    HW212019   0.195   4.072   4.013
 3962SOL     OW12020   3.969   4.584   4.670
 3962SOL    HW112021   3.998   4.671   4.642
 3962SOL    HW212022   3.895   4.564   4.612
 3963SOL     OW12023   3.999   4.177   4.640
 3963SOL    HW112024   3.964   4.237   4.705
 3963SOL    HW212025   4.084   4.214   4.615
 3964SOL     OW12026   4.875   3.940   0.246
 3964SOL    HW112027   4.864   3.845   0.235
 3964SOL    HW212028   4.922   3.968   0.168
 3965SOL     OW12029   3.681   0.068   3.847
 3965SOL    HW112030   3.726   0.136   3.796
 3965SOL    HW212031   3.588   0.083   3.830
 3966SOL     OW12032   4.755   4.556   0.019
 3966SOL    HW112033   4.753   4.461   0.004
 3966SOL    HW212034   4.766   4.565   0.114
 3967SOL     OW12035   3.939   4.368   4.832
 3967SOL    HW112036   3.986   4.379   4.914
 3967SOL    HW212037   3.958   4.448   4.782
 3968SOL     OW12038   4.532   4.346   4.135
 3968SOL    HW112039   4.614   4.392   4.152
 3968SOL    HW212040   4.559   4.255   4.121
 3969SOL     OW12041   4.395   4.214   5.004
 3969SOL    HW112042   4.386   4.290   5.063
 3969SOL    HW212043   4.402   4.253   4.917
 3970SOL     OW12044   4.208   4.188   3.896
 3970SOL    HW112045   4.131   4.234   3.930
 3970SOL    HW212046   4.175   4.142   3.818
 3971SOL     OW12047   3.745   4.795   0.161
 3971SOL    HW112048   3.803   4.837   0.224
 3971SOL    HW212049   3.803   4.767   0.090
 3972SOL     OW12050   3.894  -0.032   4.796
 3972SOL    HW112051   3.928   0.026   4.865
 3972SOL    HW212052   3.830   0.021   4.750
 3973SOL     OW12053   3.914   4.020   4.424
 3973SOL    HW112054   3.941   4.080   4.493
 3973SOL    HW212055   3.886   4.078   4.353
 3974SOL     OW12056   4.584   4.777   0.045
 3974SOL    HW112057   4.635   4.829   0.108
 3974SOL    HW212058   4.635   4.697   0.034
 3975SOL     OW12059   4.747   4.700   4.066
 3975SOL    HW112060   4.759   4.620   4.118
 3975SOL    HW212061   4.657   4.728   4.085
 3976SOL     OW12062   4.783   4.746   4.437
 3976SOL    HW112063   4.703   4.765   4.486
 3976SOL    HW212064   4.792   4.651   4.441
 3977SOL     OW12065   4.640   3.886   4.682
 3977SOL    HW112066   4.637   3.979   4.702
 3977SOL    HW212067   4.687   3.881   4.598
 3978SOL     OW12068   3.858   4.119   3.820
 3978SOL    HW112069   3.939   4.090   3.780
 3978SOL    HW212070   3.869   4.214   3.830
 3979SOL     OW12071   3.776   3.973   4.026
 3979SOL    HW112072   3.818   3.887   4.012
 3979SOL    HW212073   3.806   4.026   3.953
 3980SOL     OW12074   4.372   4.386   4.347
 3980SOL    HW112075   4.389   4.477   4.368
 3980SOL    HW212076   4.419   4.371   4.266
 3981SOL     OW12077   4.562   4.735   4.601
 3981SOL    HW112078   4.595   4.662   4.653
 3981SOL    HW212079   4.522   4.794   4.664
 3982SOL     OW12080   4.772   4.618   3.802
 3982SOL    HW112081   4.772   4.651   3.892
 3982SOL    HW212082   4.747   4.526   3.810
 3983SOL     OW12083   3.701   5.000   4.382
 3983SOL    HW112084   3.795   5.021   4.386
 3983SOL    HW212085   3.690   4.927   4.442
 3984SOL     OW12086   4.146   4.116   4.241
 3984SOL    HW112087   4.204   4.067   4.183
 3984SOL    HW212088   4.147   4.066   4.323
 3985SOL     OW12089   4.694   3.672   4.848
 3985SOL    HW112090   4.651   3.683   4.933
 3985SOL    HW212091   4.677   3.754   4.801
 3986SOL     OW12092   4.632   0.086   3.926
 3986SOL    HW112093   4.704   0.054   3.872
 3986SOL    HW212094   4.553   0.067   3.875
 3987K        K12095   1.246   1.786   2.970
 3988K        K12096   1.580   2.468   1.190
 3989K        K12097   0.054   2.121   3.809
 3990K        K12098   1.765   2.738   0.025
 3991K        K12099   0.877   3.179   4.150
 3992K        K12100   1.315   4.333   1.504
 3993K        K12101   3.340   2.367   1.059
 3994K        K12102   3.210   4.242   3.253
 3995K        K12103   4.509   1.685   4.047
 3996K        K12104   4.160   2.124   2.175
 3997K        K12105   3.984   3.329   4.392
 3998K        K12106   4.642   3.813   3.262
 3999K        K12107   3.805   4.836   3.987
 4000CL      CL12108   1.467   2.047   0.399
 4001CL      CL12109   1.001   2.603   1.248
 4002CL      CL12110   1.015   2.877   0.295
 4003CL      CL12111   0.321   3.853   0.214
 4004CL      CL12112   3.243   1.631   0.509
 4005CL      CL12113   2.028   0.992   1.685
 4006CL      CL12114   2.992   1.347   2.719
 4007CL      CL12115   3.575   3.503   0.323
 4008CL      CL12116   4.728   0.998   1.731
 4009CL      CL12117   3.963   0.353   4.472
 4010CL      CL12118   4.009   2.008   4.955
   5.00000   5.00000   5.00000
